/*--------------------------------*- C++ -*----------------------------------*\
| =========                 |                                                 |
| \\      /  F ield         | OpenFOAM: The Open Source CFD Toolbox           |
|  \\    /   O peration     | Version:  v1812                                 |
|   \\  /    A nd           | Web:      www.OpenFOAM.com                      |
|    \\/     M anipulation  |                                                 |
\*---------------------------------------------------------------------------*/
FoamFile
{
    version     2.0;
    format      ascii;
    class       volScalarField;
    location    "0";
    object      p;
}
// * * * * * * * * * * * * * * * * * * * * * * * * * * * * * * * * * * * * * //

dimensions      [0 2 -2 0 0 0 0];


internalField   nonuniform List<scalar> 
4032
(
-0.2794200852466407
-0.2676072667966997
-0.3383681302052741
-0.2815720017195523
-0.2559469644652504
-0.2744668482427025
-0.3460586555828095
-0.2985595811292927
-0.2766557567508285
-0.2468097445693322
-0.2631210265103227
-0.2730060849315897
-0.3485490321646407
-0.3021415875907075
-0.284255781736436
-0.2729899922246957
-0.2379932914967497
-0.252423866379358
-0.2643942744267794
-0.2711364597567006
-0.3449955933750645
-0.3034361202469616
-0.2848063744211622
-0.2757192861424909
-0.2728062997495642
-0.228512403793742
-0.2421498723315426
-0.2546246799137528
-0.2648512367519267
-0.2721205455980486
-0.295485243933345
-0.303626705942565
-0.2858548982698625
-0.2746818580211776
-0.2726053928980495
-0.2778597976816084
-0.2182870037842188
-0.2317133927433133
-0.2443366466915886
-0.2564954506732022
-0.267683975312589
-0.2782716172437711
-0.2872492321949413
-0.2917515102152002
-0.2887092417534244
-0.275493676373417
-0.2702892837078114
-0.2755659968067549
-0.28982574457494
-0.2075128612734639
-0.2209251554905396
-0.2336065495090656
-0.2466375069806118
-0.2605151005597401
-0.2757025418452029
-0.2919064027710306
-0.2790152135303856
-0.2898651612319543
-0.283824425431366
-0.2794945988812337
-0.2707035040233593
-0.2722621644110311
-0.2853623391340782
-0.3107179548005086
-0.1965459469166963
-0.2098462616821698
-0.2224753198144686
-0.2360017472909968
-0.2509324957440358
-0.2689454860903104
-0.2909322338825462
-0.3156535118213336
-0.2733146675850316
-0.2831460952915493
-0.2860681563209727
-0.2778226999681569
-0.2752208891816258
-0.2720502569894102
-0.2810806891571855
-0.3030676148086774
-0.3421738266605421
-0.1860737103140304
-0.1986948820961396
-0.2111334703681175
-0.2245243077539048
-0.2400991478595656
-0.259380361657665
-0.284364600978906
-0.3159271460275505
-0.3510587192394569
-0.2682847982408781
-0.2768304871202934
-0.282029788752765
-0.2812938723139964
-0.2746145133434961
-0.2762054451284725
-0.2797748581254422
-0.2974896607541893
-0.3299889574429389
-0.383796998734856
-0.1770789786480303
-0.188071422812813
-0.199800926661
-0.2127590580881299
-0.2281468559048372
-0.2477996847755692
-0.2743031359366909
-0.3098606419763685
-0.3542217168763838
-0.3988005413258343
-0.263005045925651
-0.2708200767656178
-0.2770365270215762
-0.2791781190889305
-0.2777463467850267
-0.2748235941989721
-0.2821224882785576
-0.2942817903726996
-0.3219328288611028
-0.3657047852386898
-0.4290570054872417
-0.1708318445736656
-0.1788991205611246
-0.1890784651984725
-0.2010501976803248
-0.2157079480453652
-0.2347823666753156
-0.261312035846671
-0.2989232253866997
-0.3488049606869749
-0.4075362322364348
-0.4521835146588503
-0.2572639965465448
-0.2647928945731741
-0.2714051344691921
-0.2755665998780426
-0.2761939687920812
-0.2763188059499468
-0.2786402242330142
-0.2930209511837403
-0.3155735010875871
-0.3528979412779288
-0.4051795917435879
-0.4650387736000965
-0.1685556392114619
-0.1724084446464241
-0.1798569379005539
-0.1901017409633717
-0.203320933477629
-0.2210332832045348
-0.2462744499421037
-0.2834472284627806
-0.3361618740908308
-0.4041874381969722
-0.4684288695337133
-0.4961006582220043
-0.2509337906641226
-0.2585573135327086
-0.2653894189187185
-0.2706825057891999
-0.273215599499141
-0.2739894060903756
-0.2773564388707715
-0.2860619982043758
-0.3077063399783058
-0.3394016213891186
-0.384387684337206
-0.4285724279544957
-0.4452063231055425
-0.1709501018368373
-0.1698138993196806
-0.1733274541464219
-0.1807525980947992
-0.1918022860246821
-0.2073872523095363
-0.2303969802282532
-0.2652456833163391
-0.316831529458042
-0.3889905093602208
-0.4684947078373672
-0.5190144667691873
-0.4817190796563992
-0.243951619932056
-0.2519085273203374
-0.2590345155149004
-0.2650365554867394
-0.2687837094430037
-0.2706217254810885
-0.2729953863818994
-0.2805225070632399
-0.2948145064804658
-0.3219782450630048
-0.3558963871751791
-0.3945852254043985
-0.4105661208453727
-0.3359235535950102
-0.1765404066285012
-0.1718519381417439
-0.1706477991725092
-0.1741815558081123
-0.1820426711163717
-0.1947574536186229
-0.2146700106234764
-0.245968195337431
-0.2935633546485422
-0.3637263114977123
-0.4498728622817764
-0.5215149333919951
-0.5060552389846383
-0.3593612454277285
-0.2362623049776882
-0.2447109670151759
-0.2522510900248705
-0.2588152897582011
-0.2634535654903402
-0.2659745233179223
-0.2681086591050217
-0.2728054469092899
-0.2836253315720877
-0.302073940267561
-0.3303404894553796
-0.3575759387530321
-0.3691951217805164
-0.297262564411515
-0.1323436421991985
-0.1832518480591183
-0.1771266021550446
-0.1725325235996824
-0.1714608964635409
-0.1752535894514565
-0.1841652504582542
-0.2002927367727467
-0.2270426355782348
-0.2689623367918594
-0.3322621703984482
-0.4165153998176479
-0.4976014158874765
-0.5051364364782559
-0.3714437340604915
-0.1548907988771705
-0.2277784006765569
-0.2368724752662359
-0.2449331178848952
-0.2520550748346143
-0.2574227075567324
-0.2605546240375901
-0.2623726618836379
-0.2653158014601234
-0.2716435863717315
-0.2846598160971687
-0.3022495751116952
-0.3206989402976658
-0.3206791057310234
-0.2501191355976978
-0.1120051013144947
0.005379206066257309
-0.1900331453096355
-0.1836158770115256
-0.1776248009210103
-0.1732548007323626
-0.1724222458348361
-0.1768911150780362
-0.1882954429111369
-0.2100420816386008
-0.2451085047642398
-0.2991698993729156
-0.3731418025989371
-0.4536696658353207
-0.4771725217875409
-0.3664339212832412
-0.1684749422604488
-0.008262527548983017
-0.2182905152952491
-0.2282765516499798
-0.2370195023744887
-0.2446969191082502
-0.2507985339929263
-0.2544964023442
-0.2562329609597151
-0.2576453113236651
-0.2608816998653832
-0.2681991017847487
-0.2788350690811616
-0.2848620092655729
-0.2752842318132646
-0.2117086837350693
-0.09780052837362699
0.01652933629859785
0.0481213904081196
-0.1965185898060354
-0.1902612669545343
-0.183966101143866
-0.1782126544963682
-0.1741125220904561
-0.1737968473633543
-0.1801368430293203
-0.1959306640431494
-0.2242525525846243
-0.2673436688248301
-0.3279101891055402
-0.3966014815862597
-0.4250101495127028
-0.3344811744120628
-0.1721419897254526
-0.01743305061962069
0.03682333188225208
-0.2079128349141583
-0.2187088142893678
-0.228400596276138
-0.236758136814675
-0.2435462310287757
-0.2479156517574062
-0.2497269269305744
-0.2501146438930137
-0.2507865999800901
-0.2541507500849846
-0.2576911234844212
-0.2558918790738903
-0.2398334091609289
-0.1850890040145487
-0.0919847550969637
0.01441879404854376
0.05841905615982667
0.02502298520632713
-0.2025495210252155
-0.1966758926494087
-0.1905078794442188
-0.184418329329849
-0.1789475337946769
-0.1752972411622851
-0.1764754643316372
-0.1863775192386286
-0.20707635232261
-0.2408752514922773
-0.2858050878880768
-0.3410303136355957
-0.3582552151939072
-0.2860966375710234
-0.1559071738988321
-0.01838295003403007
0.01741566872603637
-0.005931206220176853
-0.1976323041039248
-0.2082587227828558
-0.2187966468852885
-0.2281749262006345
-0.2356843739115315
-0.2408030706426445
-0.2429187404340637
-0.2426399981483039
-0.2415424259200829
-0.2416624434970787
-0.2400123685098922
-0.2325740972935846
-0.2147373517913629
-0.1673811920082967
-0.0893160241703901
0.003191940011977271
0.07007682862759851
0.06511369737390223
-0.01596126830962936
-0.2081904497833248
-0.2026761538327108
-0.1968618248979648
-0.1908517214943881
-0.1850393531134353
-0.1799700207368072
-0.1775547108720541
-0.1816918097316882
-0.1957329321832182
-0.2196308178873482
-0.2533832737744913
-0.2879018035419197
-0.2809191976303437
-0.2345188271128342
-0.1267066190353127
-0.01767210889565677
-0.003525210755544173
-0.0455498945807673
-0.01946986363992267
-0.1874725362574616
-0.1979087733206676
-0.2083187732229802
-0.2185724900981962
-0.2271708503867437
-0.2330942091692671
-0.2357798887547398
-0.2352153665717762
-0.232920941076851
-0.2305804563512377
-0.2250747681482077
-0.2150433010291601
-0.1958891099904219
-0.1545340051177012
-0.08841226770412082
-0.008241456246574061
0.05625035463973572
0.08004564279668251
-0.00824393102757035
-0.0165352327539197
-0.213432699358003
-0.2083079545074785
-0.2028318450013141
-0.1971335427315137
-0.191381500394157
-0.1858971672967051
-0.181828097198855
-0.181853454554423
-0.1898916739299578
-0.2071886028628347
-0.2274969229291388
-0.2384092464196003
-0.2193741336059538
-0.1923136270367182
-0.08480376351943754
-0.01271651817743955
-0.05091769656245847
-0.06451491316553702
-0.007595432962546937
-0.009241697415113886
-0.1775118846370994
-0.1876966071128695
-0.1979880965716178
-0.2080654408829403
-0.217682277527665
-0.2247935602177351
-0.228318114724002
-0.2277597858676765
-0.2247776789799383
-0.2205452179817602
-0.2128587135233044
-0.2010898275451487
-0.1817697642681939
-0.1449362280527303
-0.08848869564044459
-0.02082970358164815
0.03877736471436664
0.06200983366743823
0.00532417901316315
-0.03736410151166269
-0.04141007592125948
-0.2184128567336407
-0.2135496379639137
-0.2084516505504675
-0.2030595207834343
-0.1976004229561161
-0.1920829089472613
-0.1875274310499617
-0.1852042530350087
-0.1885697790855823
-0.1987459016822625
-0.2080767761689852
-0.2079600451240758
-0.1955354906248462
-0.1491137801095614
-0.05033384798081671
-0.05633775249491414
-0.07535391874722122
-0.06735042782506616
-0.001602833035171747
0.01197726987822593
-0.009514360421783361
-0.168436138858865
-0.1777032678766374
-0.1877951269821185
-0.1978222241777504
-0.2071950851885233
-0.2154894918365511
-0.2203167625868998
-0.2203011025025068
-0.2169266116536808
-0.2113629191706745
-0.2025681358268485
-0.1898240948821297
-0.1707109975161672
-0.137504244317873
-0.08909991557004833
-0.03093895518448769
0.02020186649248037
0.05220390721269286
0.01933472290307562
-0.05136879063279236
-0.03448944440988395
0.01187743670678705
-0.2230836726967362
-0.2185236977144425
-0.2136884076802098
-0.2086587776427832
-0.2034817487066749
-0.1981593441918246
-0.1935618362362651
-0.1900029688993684
-0.1906830967085527
-0.1968586592136635
-0.1993980840262758
-0.1987066645157064
-0.1744219466339452
-0.1162599733315563
-0.06277114410231477
-0.09235447424302207
-0.07476405611766718
-0.06639948775101474
-0.005616620673418707
0.01643811807096111
0.0157612209986825
0.009760633590188951
-0.1597951243105133
-0.1685990479024801
-0.1777864366752887
-0.1877205405011707
-0.1971183636875186
-0.2051954102193699
-0.2112493186188155
-0.2126080637450994
-0.2092948459921607
-0.2028618199305633
-0.1936550245630894
-0.1803489117701412
-0.1617052805174947
-0.1316018103156147
-0.08964745920088925
-0.03962354880807822
0.006216077024233086
0.03615250748135464
0.01461508586027849
-0.03663443968111611
-0.02118549001608381
0.01572748930298367
0.004053628288138268
-0.2274128714137873
-0.2231785179152092
-0.2186562216555843
-0.213887254706787
-0.2090515380206569
-0.2039239548234121
-0.1995470449421625
-0.195235565783052
-0.1949071235850478
-0.1973595580570364
-0.1967461775980469
-0.194324253949561
-0.1613633546372489
-0.1114862031110476
-0.08863074453586504
-0.08800815146255532
-0.07077576884168546
-0.06899127115845097
-0.008717541980459405
0.006521878102694303
0.03081463251869058
-0.00403944572023246
0.003216472906255736
-0.1516952388069881
-0.1599299821317965
-0.1686688697218182
-0.1777143411262558
-0.1872133256709993
-0.1953773455880279
-0.2013764544763746
-0.2041396132028448
-0.2017376315809548
-0.1949174112706139
-0.1856810260104204
-0.1722227363016656
-0.1541217782412744
-0.1267196365556443
-0.08984578650971017
-0.04618407551691243
-0.006153405765983755
0.02380176699063741
0.01414226512808071
-0.02264944919091637
-0.007674214742875366
0.003784998993448221
0.01021144882674549
-0.008517005401582468
-0.2313185556212622
-0.2274860314696179
-0.2232979505679077
-0.2188532474016937
-0.2142542344485159
-0.2094373178742753
-0.2052323945014317
-0.2005154697215889
-0.1998069125170921
-0.1985791321384243
-0.1961172539273972
-0.1947321062257986
-0.1581914110102654
-0.1117677059678197
-0.0955563409219687
-0.08741593429169152
-0.07226770088508014
-0.07137824455855979
-0.01408187948935201
-0.0006150575271391443
0.0231473173195818
0.005568170563985306
-0.01255027882664609
0.00174138439399345
-0.1439800220113763
-0.1518058175796857
-0.1599833703593788
-0.168592954530314
-0.1772521750621743
-0.1857869285934343
-0.191926848021184
-0.1948686119924241
-0.1938693649795378
-0.187400997780481
-0.1783401308285128
-0.1649973063786078
-0.1475466515269017
-0.1224428091109262
-0.08963018061291324
-0.05129308072226952
-0.01542719549053573
0.01203687802549114
0.008933166157617549
-0.01481472105483736
-0.007385014887181727
0.005137446147174245
0.006067036807824945
0.003590949077468234
-0.005542275559593376
-0.2347713061637852
-0.2313703386785563
-0.2275869461897672
-0.2234899693713569
-0.2192032607885955
-0.214633576212541
-0.2106634849031224
-0.2056725912512616
-0.2048901532886239
-0.2011523446693855
-0.1999655943680982
-0.195511770031792
-0.1567878496223079
-0.1179212792637655
-0.1030854405400032
-0.08712461738119816
-0.07563743626679599
-0.07202053321433222
-0.01851630170639345
-0.01029235501864698
0.0231890140780212
-0.0008192038458177817
0.0007236285191779986
-0.005082515356021583
0.002752566486580781
-0.1365917625157856
-0.1440678786297228
-0.1518436399785824
-0.1599003576471189
-0.1681543811803677
-0.1759616319752596
-0.1827298238795591
-0.1859246472222233
-0.1854598364484988
-0.1801587981317838
-0.1714096010983437
-0.1583876909681364
-0.1416838616892595
-0.1185350023739788
-0.08903547387466465
-0.05495025203147465
-0.02293484327395177
0.002858029671271765
0.005351415457021691
-0.01101522847165418
-0.003117367930566062
-0.0005504308467777086
0.009500639988464251
-0.0045828795604613
0.004557688957298076
-0.006319818743276771
-0.2377681885362758
-0.2348042884479732
-0.2314514034562933
-0.227767969112891
-0.2238144210676283
-0.2196359012608757
-0.2157561708602313
-0.2109109027086841
-0.2098376503598113
-0.2040883146462442
-0.2065447044595716
-0.1969212494175765
-0.1570106468294804
-0.1266661541632627
-0.1074686634890147
-0.08970827302342363
-0.07911415891110075
-0.07105473921530495
-0.02421043766783022
-0.01572846859413015
0.01546384464486616
-7.011283716369916e-05
-0.00737699243415953
0.0007017346909118636
-0.005441059681505479
0.0003776167117477706
-0.1295012302820235
-0.1366597416491183
-0.1440914625286627
-0.1517503894310779
-0.1594768553903702
-0.1669472146776358
-0.1731918346749363
-0.1771508919326586
-0.1771014280598547
-0.1729024081638617
-0.1647584536744442
-0.1521982327520469
-0.1362952448025428
-0.1148401895511659
-0.08806995294689095
-0.05751615644289187
-0.02850303122765002
-0.004698116220491795
0.0009386735471038048
-0.008640079330747457
-0.003655955370542388
0.0008932331579271806
0.004218784196904784
0.001510169355393102
-0.002220507331581154
0.0001010836046800913
-0.000802561007134778
-0.2403147267888417
-0.2377834210083532
-0.2348660566973074
-0.2316174411393725
-0.2280512634284209
-0.2243216491653945
-0.2206805009571579
-0.2161362630866174
-0.2146814790202098
-0.2075051054777161
-0.2135813176255111
-0.1989756499310543
-0.1611902551380085
-0.1367429787128212
-0.1125364506912292
-0.09318564951689709
-0.0828237659403644
-0.07021226628339215
-0.03003485215844315
-0.0216990797269597
0.01141896606638341
-0.006057463285672702
-0.00042129329967514
-0.006235266139824975
0.0005365021035572964
-0.005293299048219948
-0.0007773961954709574
-0.1226190933322598
-0.1295508647759616
-0.1366681257216675
-0.1439896227344752
-0.1513347443429357
-0.158334609990918
-0.1643617758720388
-0.1681239920056344
-0.1687938326880785
-0.1654071311779431
-0.1582206280870215
-0.1463696366523448
-0.1312034402308122
-0.1112531964733753
-0.0867697060125389
-0.05911313524945871
-0.03269796278176994
-0.01055309721136718
-0.002517171312226771
-0.007967327860903319
-0.00192362693103751
-0.002296158404910251
0.006461172243898326
-0.004007366237254227
0.004608461484682324
-0.005571955092684589
0.0005777546668274547
-0.0007794392890216075
-0.2424414058994251
-0.2403112847564347
-0.2378262086164657
-0.2350151060135349
-0.2318493416466153
-0.2286212474375338
-0.2252540044153046
-0.2214863043425645
-0.2195367969703852
-0.2116182006817434
-0.2193578077191225
-0.2001648872657449
-0.1724567614687619
-0.1435815288739252
-0.1175597055464432
-0.09786298106656617
-0.0863358508581242
-0.07069664254050621
-0.03630259577653814
-0.02562735030056588
0.004248526060858058
-0.006838825845975187
-0.005738953134395684
-0.002558791042650482
-0.005374133017005942
-0.0005980291882749098
-0.001968815617786669
-0.005473106050375856
-0.1159489776474696
-0.1226520744468921
-0.1295460408938301
-0.1365521615341214
-0.1435752267346863
-0.1502372333510935
-0.1559002472590082
-0.1596434739419368
-0.1604407915462416
-0.1577265747131947
-0.1514676737035025
-0.1407821620093176
-0.12635166473254
-0.1076810925711005
-0.08517265571454304
-0.05994247271842187
-0.03565733717756892
-0.01508304500149686
-0.005783063778124451
-0.007577978308339751
-0.0026249650248485
-0.001242639985122186
0.003265267841687642
0.0004561037467068072
5.773032508044069e-05
-0.0003882051487549014
0.0001084304003890901
-0.003836264272479291
0.005478910893041181
-0.2441513096246642
-0.2424197982447885
-0.2403337929001861
-0.2379565520928771
-0.2351906378400262
-0.2324575221328986
-0.2293711721783813
-0.2265913124052608
-0.2245970083757271
-0.2176237176259894
-0.2237226303316887
-0.2014265841984273
-0.1839265951334928
-0.1490741919979112
-0.1235714013614988
-0.1026667571933278
-0.08984772991256647
-0.07188820516697442
-0.04144404947705076
-0.0298836277967962
-0.001010635759485527
-0.01120594555546641
-0.003166834872925842
-0.007837320695334349
-0.001416452183351181
-0.005794779413365517
-0.001865803309846075
-0.0001197402404037965
-0.007698452485824497
-0.1094208755192324
-0.1159661594447197
-0.1226337755768617
-0.1294209138461507
-0.1361354138620688
-0.1425037953013539
-0.1479098689180606
-0.1514661442224681
-0.1524469862348384
-0.1501156106767988
-0.1445355022475669
-0.1349971382855625
-0.1216839186615979
-0.1041274766004816
-0.08328179172004851
-0.0601074572942089
-0.03766107314472675
-0.01846098366778111
-0.008317524771638416
-0.007791748353006361
-0.002083588152771869
-0.002868045084492798
0.004534990713793983
-0.003265882121935777
0.004455411529401179
-0.004185519826007551
0.001321490749904081
-0.00110909355647628
-0.006237744096033192
0.007116022366538719
-0.2454687118555478
-0.2441167670246848
-0.2424225656278993
-0.2404389967396628
-0.2380792195472612
-0.2358210913443582
-0.2329875947561776
-0.2311496717835207
-0.2291672368139551
-0.2251679643551683
-0.2285043122111376
-0.2037619807454574
-0.1934067402619158
-0.1540749213918435
-0.1300308358368625
-0.1074986032334953
-0.0931886517936118
-0.07367711416503125
-0.04614239882714533
-0.03306506690190545
-0.006863301019365471
-0.01260055188618819
-0.007039111068148293
-0.006216186239189341
-0.006004758438115145
-0.002587258222160002
-0.002782395666562694
-0.005314814008769123
0.00539683818767024
-0.008538788709603494
-0.103008110021551
-0.1094230977388507
-0.1159354723522068
-0.122493124949313
-0.1290010848653204
-0.1350887293854732
-0.1402543847719817
-0.1436827747012599
-0.1447024031645942
-0.1427697717611799
-0.1377436797948056
-0.1289879584998848
-0.116861502082992
-0.1005933441184188
-0.08113826033063563
-0.05971909379920011
-0.03885754513428528
-0.02088931788107489
-0.01034723268492058
-0.007925395124614491
-0.002631898826506538
-0.002201795000631134
0.002831031647181527
-0.0004622511744564704
0.001639942827174394
-0.0008411631212196677
0.001230239930995458
-0.003221671754684559
0.005031105488490188
-0.007050199404595372
0.003240784467912392
-0.246486527662738
-0.245429358276653
-0.2441056930909997
-0.2425020559399815
-0.2405124527547175
-0.2387141967880058
-0.2361119256407781
-0.2350632260189884
-0.232984296955612
-0.2323832864130843
-0.2336314798138203
-0.2101327866711159
-0.2007616747727886
-0.158961260218412
-0.136509647406291
-0.1120159479009388
-0.09620428226436206
-0.07573872286316265
-0.05015983151407169
-0.03635024518489348
-0.01154978030121136
-0.01587060956793436
-0.006894938141275914
-0.009921915596103649
-0.003681295738686827
-0.006052711122489872
-0.003097126968801329
-0.0006952574312303663
-0.006822767337662412
0.006805871301576906
-0.005290391627575934
-0.09668871712249225
-0.1029964362837709
-0.1093775610426813
-0.1157816946423069
-0.1220577298822963
-0.127956430986827
-0.1329000539333012
-0.1361950259776816
-0.1372586587048114
-0.1356142046604746
-0.1310783648020432
-0.123087344648468
-0.1118089224857983
-0.09686077776801791
-0.07880018850801797
-0.05885835215296449
-0.03939648836714888
-0.02251378250737835
-0.0117720402126071
-0.008208331137570879
-0.002553280664668467
-0.002944234602711074
0.003374903687274284
-0.002549438289755722
0.004262806250110765
-0.003089824606188718
0.00186502524748746
-0.001067611394361571
-0.004165087036865977
0.004951186021905992
-0.004418756026445815
0.003840128286851505
-0.2473166627372378
-0.246450989827509
-0.2454087657765032
-0.2441537651853322
-0.242538270393117
-0.2411243021415584
-0.2388156616349193
-0.2384007687822344
-0.2359979112504636
-0.2375957550458493
-0.2379888831028124
-0.2198210324824963
-0.2060975738858792
-0.163820459413101
-0.1426201309267592
-0.1161864987510766
-0.09893769192785903
-0.07810660089650827
-0.05376374141634473
-0.03913375941253749
-0.01608260103795899
-0.01755279026852014
-0.009745305072159425
-0.009332429079482516
-0.006766054396638373
-0.004391744133035577
-0.003573389000809203
-0.005032675185806883
0.00335553642721395
-0.007216123379702407
0.003162360672875931
-0.001451265692899633
-0.09041367924659566
-0.0966636382007719
-0.1029394283744652
-0.1092040943417524
-0.1153313166882598
-0.1210180863427212
-0.1257959121592498
-0.1289731386938875
-0.1300554364653839
-0.1286593400359853
-0.1245544074270554
-0.117230497873413
-0.1067900201778645
-0.09287512242331045
-0.07617541992562078
-0.05762249946171891
-0.03938268068740022
-0.023504838723523
-0.01273760824348452
-0.008427746772021266
-0.002853460062185525
-0.002538487469780087
0.002562034801332479
-0.0009327329531012941
0.002691166716228093
-0.001061394527400507
0.002172479117553846
-0.002709596882655449
0.004352795866286284
-0.005318895549945891
0.002929423288663347
-0.0007973617242551404
-0.2480833071515349
-0.2472885096772492
-0.2464287404260752
-0.2454231556243013
-0.2441636729540069
-0.2430950917821335
-0.2410984196816828
-0.2412357586085873
-0.2384328932399815
-0.2413852673967795
-0.2409731669735641
-0.2282830533592615
-0.2100470598626238
-0.1689229554539836
-0.1480442652124185
-0.1200259321840126
-0.1016906044256723
-0.080624553032054
-0.05697849614974102
-0.04180107974358568
-0.01988199956971997
-0.02002264459067896
-0.01060944840118997
-0.0116354253306171
-0.005737334939271628
-0.006580320788359901
-0.004107684569438504
-0.001568398269185955
-0.006141848152086816
0.004523886038603048
-0.004197125305744254
0.003087584495427424
-0.08415294234362038
-0.09037492168718378
-0.09659589456145364
-0.1027543075694152
-0.1087314445422735
-0.1142664221121334
-0.1188920957648418
-0.1219685540660438
-0.1230678535072301
-0.121875849208599
-0.1181629936243019
-0.1114365891770244
-0.1017450248198469
-0.08882304346117294
-0.07324589920679778
-0.05601218436521171
-0.03891206532951681
-0.02394716918539036
-0.01328123857362715
-0.008644654980639137
-0.002788407010490395
-0.00275399714697312
0.002820472221915496
-0.001772496253795464
0.004093119788986728
-0.00214831293518312
0.002322148819810762
-0.0009018494749951412
-0.002323905351294836
0.003311787250248939
-0.003439978293435157
0.003381330357299508
-0.2488823184438854
-0.2480609333055025
-0.2472678644611806
-0.2464126202708184
-0.2454208738851901
-0.2445940365333613
-0.2430012178608584
-0.2435570263710939
-0.2405320126255369
-0.2445756085946297
-0.2424021310876345
-0.2341790750829152
-0.2131499234290347
-0.1740935117488477
-0.1527211779354416
-0.1235195615351605
-0.1044681833363212
-0.08300434878439335
-0.05987266181674771
-0.04414640856535099
-0.02339596246624685
-0.0216660434570604
-0.01270479590924646
-0.01171133398322824
-0.007797297022406909
-0.005972591164186536
-0.004362344974497233
-0.004951958328259945
0.001427766280075396
-0.005974727898536498
0.0026224067267419
-0.002648573428497207
-0.07787122605743724
-0.08410070857570501
-0.09029470218075956
-0.09639725595615009
-0.1022699735231164
-0.1076644452439598
-0.1121327671853478
-0.1151419300318687
-0.116254747976632
-0.1152435895561343
-0.111879385439296
-0.1056956651448799
-0.09669996835257877
-0.08466770211763065
-0.07015377084269296
-0.0540526791533848
-0.03804244127675228
-0.02394115512548221
-0.01352811922056493
-0.008621235353038589
-0.00274687347690638
-0.002393963791113151
0.002444485685758435
-0.0007934599662979563
0.003331492779370341
-0.0009693458186829613
0.002839581949433168
-0.002122433538251213
0.00372682995154353
-0.003863371089607338
0.002517367523804928
-0.0004134295383522718
-0.2497965679844646
-0.248862667076453
-0.2480412964797263
-0.2472239520061877
-0.2464186291187716
-0.2456628295678641
-0.2444790054333038
-0.2452919208799032
-0.2424777048678282
-0.2473794597824823
-0.2427251380313315
-0.2382300281624104
-0.2152715288176812
-0.1790060612185207
-0.1566279611304165
-0.1267037514108987
-0.1071982607715125
-0.08517531933792734
-0.06245661612827818
-0.04631427842738838
-0.02640968453094121
-0.02355225324408432
-0.01386059660482217
-0.01319565165074268
-0.007636251187866152
-0.007280725673195419
-0.00500142209019291
-0.00248375159714629
-0.005446796313077496
0.002787731753755222
-0.003380117871944811
0.001675418059381166
-0.07153126914759622
-0.07780543037160408
-0.08400766048446072
-0.09007878035362384
-0.09589248174116799
-0.1011808630667195
-0.105527638592151
-0.1084539632298022
-0.1095812671483532
-0.1087328194006223
-0.1056863192653862
-0.09999954972303522
-0.09164437407603365
-0.08043873721697722
-0.06688742474254701
-0.05185230787375085
-0.03681792676861751
-0.0235473246019954
-0.01344572580516998
-0.008409202415228341
-0.00251469912086272
-0.002262160356929791
0.002681240630799863
-0.0009740441540969371
0.004052128598987418
-0.001325512099927192
0.002747663407106107
-0.0007089130667732882
-0.0008181556545942686
0.002121161423365034
-0.00241786640141271
0.002591707301165393
-0.2509022150137178
-0.2497798661190842
-0.2488405854491282
-0.2479732855941911
-0.2472505820779891
-0.2464418117358429
-0.2456380241159261
-0.2463285849451428
-0.2441326922447129
-0.2497289616742812
-0.2429309385112215
-0.2413496322610675
-0.2165009554864468
-0.1833911097834807
-0.1598978512064533
-0.129645832424585
-0.1098500558967747
-0.08714187565172186
-0.06477108625457963
-0.04824259447504396
-0.02915293074742276
-0.02498790133557333
-0.01545970895088786
-0.01361497922612317
-0.009012499052011232
-0.00724464354208597
-0.00511651283025799
-0.004976414143305317
-0.0001187738799241128
-0.004952597109087515
0.001787050643827888
-0.002762568686336596
-0.06509658795078647
-0.07145179460913728
-0.07769899772674878
-0.0837728437430252
-0.08954826292781164
-0.09477420158000904
-0.09901447463512376
-0.1018734556489612
-0.1030164418196566
-0.1023161004040218
-0.09956056616342175
-0.0943323381621359
-0.08657984659412445
-0.07613624571772327
-0.06348491640786816
-0.04942588293375504
-0.03532193074816804
-0.02282134136698815
-0.01310463350264711
-0.008000700093772314
-0.00225713912746081
-0.001848407217237808
0.0026239832678829
-0.0003127643969477534
0.003755684443366126
-0.0005947711026862002
0.003261962149184118
-0.001493840031872289
0.003270506007324624
-0.002759513058769224
0.002107572848674172
-0.0002739734685007503
-0.2523196736218062
-0.2508928183776618
-0.2497532829661729
-0.2487536099140237
-0.2480214803034685
-0.2470537715803002
-0.2465928051517984
-0.2467601746921793
-0.2453934644199139
-0.2512564575009662
-0.2425170182914809
-0.2439920810787255
-0.216991215585172
-0.1871853040835938
-0.1625043350621216
-0.1325004986675706
-0.1122289939100216
-0.08891976683035741
-0.06683408088195708
-0.0499933909809351
-0.03152931630739096
-0.02643917551193731
-0.01662581061173173
-0.01463497154649792
-0.009296551995666164
-0.008014754341981541
-0.005817520693126401
-0.003274151100588921
-0.00494865013815445
0.00131877252835968
-0.002839529707595357
0.0009239139766279566
-0.05852448574848085
-0.06500312679337369
-0.07133146682181399
-0.07744345154408272
-0.08321276617051127
-0.08839324988180337
-0.09257601975800767
-0.09537048336844779
-0.09653092074469741
-0.09596533943623536
-0.09348046559906309
-0.08868001173636705
-0.08149514147312234
-0.07177003596912876
-0.05995901499430717
-0.0468167994703689
-0.03358532690806246
-0.02183091070437069
-0.01251570080342112
-0.007451207972950167
-0.001873971952661515
-0.001483482962788364
0.00288537683603126
-0.0001844739153414482
0.004171126301055826
-0.0005799797329860554
0.003142001857674586
-0.0004635921898414462
0.0003430670925464861
0.001301238674335991
-0.001406274598095046
0.00178422071757343
-0.2542288565982104
-0.2523199235909105
-0.2508613407782943
-0.249655903698896
-0.2487972477847544
-0.2476412036410108
-0.2474439152421546
-0.2467928910480297
-0.2464505758758787
-0.2515492443973931
-0.2422023174829188
-0.2463084070163087
-0.216977979070836
-0.190362257370437
-0.1645504571960826
-0.1352273361206722
-0.114210971446287
-0.09050481241808452