/*--------------------------------*- C++ -*----------------------------------*\
| =========                 |                                                 |
| \\      /  F ield         | OpenFOAM: The Open Source CFD Toolbox           |
|  \\    /   O peration     | Version:  v1812                                 |
|   \\  /    A nd           | Web:      www.OpenFOAM.com                      |
|    \\/     M anipulation  |                                                 |
\*---------------------------------------------------------------------------*/
FoamFile
{
    version     2.0;
    format      ascii;
    class       volVectorField;
    location    "0";
    object      U;
}
// * * * * * * * * * * * * * * * * * * * * * * * * * * * * * * * * * * * * * //

dimensions      [0 1 -1 0 0 0 0];


internalField   nonuniform List<vector> 
4032
(
(0.08677917583602697 -0.04775384065838331 4.299936178698681e-06)
(0.07667810285250025 -0.0265255284245921 4.015415204687331e-06)
(0.07448250063662312 -0.04565115223783651 4.207278598110783e-06)
(0.1689075002684556 -0.07530594324509905 1.107512852365775e-05)
(0.07694390500971424 -0.01939504009476949 4.182143602573774e-06)
(0.1881029216395547 -0.0633742978899144 1.207280577104138e-05)
(0.04933552757499209 -0.02007073817332892 2.754302303411216e-06)
(0.124552288679757 -0.06359967106159328 8.815149521008985e-06)
(0.2367412554274191 -0.09444967361003766 1.773956466346392e-05)
(0.07588239078205684 -0.0160211903444759 4.346032287356559e-06)
(0.2008219173963426 -0.05447991060452102 1.302970570475435e-05)
(0.2730822251315873 -0.09346619403510829 2.06570309255065e-05)
(0.04900922764505005 0.002543192365032345 1.950308863172264e-06)
(0.0908477363237491 -0.03159761551542786 6.035369922080645e-06)
(0.1848720297415424 -0.07423820449434333 1.345150726095179e-05)
(0.2999406923334649 -0.1050654363009575 2.483283094930487e-05)
(0.07400366709804172 -0.01452135491896686 4.456850342775753e-06)
(0.2041010003116681 -0.04826263412866805 1.376201413192671e-05)
(0.296604950193491 -0.08893495650807785 2.302737213383089e-05)
(0.3429619193176815 -0.1135349950649137 3.010207532739481e-05)
(0.07454839442855936 0.02680678062408964 1.491319069743154e-06)
(0.0921935507255522 0.003153786977450754 3.958100878635484e-06)
(0.1484624192662684 -0.03732257795502111 9.045722228334235e-06)
(0.2437580913243421 -0.07931425286513555 1.81949513901565e-05)
(0.3600486801981929 -0.1091257478144828 3.244075268926672e-05)
(0.07112134518200339 -0.01363057425740159 4.513531242987807e-06)
(0.2011954977307797 -0.04451308224719716 1.425344383330416e-05)
(0.3051258712228928 -0.08371951172738826 2.481604548176703e-05)
(0.3690325970082748 -0.1154994639097645 3.444179318821017e-05)
(0.4009212795235944 -0.1255261988345836 4.046301479246209e-05)
(0.0883687081988897 0.03551201142768123 5.294392825733147e-07)
(0.1303758294769116 0.03606182364694742 2.389961452960631e-06)
(0.1532550291765901 0.003544722707499983 5.512250925122678e-06)
(0.2075392912747328 -0.03879510864697606 1.183286902057422e-05)
(0.3040040941133695 -0.07917432389981101 2.310747008979066e-05)
(0.4171665859724853 -0.1067350389802318 3.994904319944198e-05)
(0.06689147811847433 -0.01275881966958149 4.511837679906764e-06)
(0.1939535551616574 -0.04193735695137858 1.453646066095486e-05)
(0.302839463878839 -0.07972561810505896 2.605629619377854e-05)
(0.3770086535186618 -0.1146410062286986 3.780363290168701e-05)
(0.420702542739906 -0.1348165275886703 4.716509370824816e-05)
(0.448386059301496 -0.1300124106663713 5.033621129361948e-05)
(0.08112472663300076 0.01965388254364373 1.310005883673147e-07)
(0.1822674838339506 0.05379815458411152 9.959533284788624e-07)
(0.2027792958755785 0.04323027713666379 2.85604912196423e-06)
(0.2181858456384977 0.006502701672053083 6.65683162471158e-06)
(0.2696143288267577 -0.03580452463385776 1.438408156528316e-05)
(0.3661837359551549 -0.07345238628801995 2.789385329242847e-05)
(0.4708150965181938 -0.09681973641700457 4.610126652928018e-05)
(0.06119266156251785 -0.01168269338043529 4.434912456234224e-06)
(0.1828802482870235 -0.03956100010046033 1.459798993482719e-05)
(0.2926998033022682 -0.07639976058808344 2.688573299819974e-05)
(0.3724335818284158 -0.1134751470166051 4.015290271669775e-05)
(0.4213741244988717 -0.1398720493001356 5.177820542036753e-05)
(0.4547671108934665 -0.1473630524179183 5.877414700174779e-05)
(0.4869235439212919 -0.1272148998765144 5.721650659513124e-05)
(0.08297467497272999 0.01381550411288619 1.756706662819593e-08)
(0.2100666175465958 0.04648346684315668 2.760496707395175e-07)
(0.2724037875126103 0.06789251931928589 1.047913197582708e-06)
(0.2803242015357087 0.05099611872358355 2.986873116213656e-06)
(0.2891729862820022 0.01308241411250809 7.381039747772964e-06)
(0.3363280530069281 -0.0274448285540278 1.647542175206167e-05)
(0.4294700303604523 -0.06065645223003289 3.198587475349173e-05)
(0.5211684401570981 -0.07680889117050498 4.960414416016834e-05)
(0.0539931303898247 -0.01034707759953738 4.268972922473369e-06)
(0.1679676499568358 -0.03675170806746897 1.439480330006275e-05)
(0.2762795888417006 -0.07317126865060858 2.722811181441484e-05)
(0.3573612225845234 -0.111729922738355 4.210267425240585e-05)
(0.4080841678918098 -0.1441321647677126 5.631261372364613e-05)
(0.4419501868633142 -0.1606785525732326 6.506630428463867e-05)
(0.4761631059674898 -0.1528411222995211 6.48244346850569e-05)
(0.5189581706540431 -0.1146865388170699 5.914948547617423e-05)
(0.08388714997875069 0.0109553171622687 -1.511417376438705e-08)
(0.2311764547701449 0.03983022115456343 1.614235744222445e-08)
(0.3269033314823858 0.06935523911478245 2.168187585750225e-07)
(0.3685773092144777 0.08010238256727717 8.778446077525948e-07)
(0.3672391641844509 0.0614005493927556 2.822185996017607e-06)
(0.3686333068528788 0.02479110075623673 7.610415095396205e-06)
(0.4080811474712597 -0.01193460966935646 1.77599028193595e-05)
(0.4937360101710789 -0.03774670663695716 3.456137629259016e-05)
(0.5683272173680171 -0.04265132740331237 4.931975094070063e-05)
(0.04532781584000681 -0.008736467287526493 4.008873167505121e-06)
(0.1491677858474895 -0.03323400175302356 1.389252572545265e-05)
(0.254036297927888 -0.06918362409132703 2.701054111112082e-05)
(0.3351217215783293 -0.1092228496667239 4.312072263010992e-05)
(0.384715315556062 -0.14639300988727 5.97384838165107e-05)
(0.4152487342141949 -0.1718722546760854 7.08135428013251e-05)
(0.4448820325953815 -0.1772465402867431 7.066814179649896e-05)
(0.4877334761385551 -0.1514748805578245 6.41163316236797e-05)
(0.5479188153008616 -0.08765848169838091 5.619196962080148e-05)
(0.0841679906010518 0.009793067823462615 -2.297283339713119e-08)
(0.2423494772677405 0.03467434312571281 -6.151132504499932e-08)
(0.3690283519742372 0.06679349020274088 -7.285010551723759e-08)
(0.4434366952944903 0.08885791474550087 4.473633350201125e-08)
(0.4733045627393604 0.09409521974473714 5.694184009388181e-07)
(0.4656959365040555 0.07696477497660792 2.353394464344609e-06)
(0.4583550046753543 0.04416055100184704 7.156669936083348e-06)
(0.4868721338869628 0.01373757969291925 1.779721598105249e-05)
(0.5576593977998462 -0.001112004245062028 3.443088183554886e-05)
(0.6106003063856212 0.01585223360319734 4.51014752539773e-05)
(0.03544306575950421 -0.006888399828041156 3.651333316567157e-06)
(0.1265401737799189 -0.02884998789154886 1.306500629262391e-05)
(0.2262673432029729 -0.06392450784702294 2.618818041499578e-05)
(0.3064385317471455 -0.1051393009529861 4.314744727009816e-05)
(0.3549163102160872 -0.1463268591613839 6.188543897503992e-05)
(0.3808460394083142 -0.1799310080521437 7.543102089689571e-05)
(0.4023322901388567 -0.1977174940911031 7.550803156195412e-05)
(0.435987199404265 -0.1882968424079555 6.668264092684356e-05)
(0.4934228657458136 -0.1370592678744718 5.728845799535013e-05)
(0.5682747682524785 -0.03485262632694163 4.820543462624548e-05)
(0.08380415465323277 0.009270617861555031 -2.344981109056514e-08)
(0.2473595046944368 0.03170731713981616 -7.754246633474803e-08)
(0.3945231204742841 0.06240102144980045 -1.48052563600916e-07)
(0.5017451270679925 0.09126868080920726 -2.182243966384302e-07)
(0.5630075303786863 0.1084016652173103 -1.940221093694984e-07)
(0.5871373531445199 0.1126572073079406 1.334577822202099e-07)
(0.5773159778942404 0.1004095143700655 1.587082857300815e-06)
(0.5616511780002493 0.07474814991990585 6.03180281558566e-06)
(0.573736738660559 0.05382760388178372 1.575496807738739e-05)
(0.6215577371046305 0.0576612568500835 3.089253883076589e-05)
(0.6400763265759065 0.1030435664382634 3.931157546630304e-05)
(0.02493718907805376 -0.004909458286435179 3.206412543850088e-06)
(0.1006107386716081 -0.02361196135882392 1.190687766926038e-05)
(0.1931345208015694 -0.05698584253659916 2.471013538621603e-05)
(0.2720773173221517 -0.09893850623284729 4.212429468131883e-05)
(0.3199002997373702 -0.143361370569895 6.258260991372996e-05)
(0.342128032740815 -0.1837024746767767 7.87710793250802e-05)
(0.3550281826958227 -0.2131985924120156 7.981756560484207e-05)
(0.3750195843732518 -0.2205042211991498 6.84269251955447e-05)
(0.4159169131002362 -0.1888183914829379 5.573451269841408e-05)
(0.4850439385518023 -0.09741113848494647 4.394606076629047e-05)
(0.5746858040771378 0.05702649326422918 3.885629227616892e-05)
(0.08269795747092391 0.008913672574124443 -2.255440365785024e-08)
(0.2484340549776692 0.02993037679296789 -7.549884472780762e-08)
(0.408482952415164 0.0588609266354909 -1.553275453362272e-07)
(0.5397643813592773 0.08967127519337262 -2.752283115016585e-07)
(0.6316382169462526 0.1153346388610889 -4.22917699520078e-07)
(0.6855174302310556 0.1307758653354278 -5.025759808500054e-07)
(0.7090159156815627 0.1378056076025375 -2.98790156274516e-07)
(0.7001539221708051 0.1340496824141548 7.553582522347996e-07)
(0.6778627116387006 0.1208834637490191 3.964929514884701e-06)
(0.671195692277893 0.1170214173437382 1.18446340399861e-05)
(0.6800048384840928 0.1458517612084016 2.455529835745155e-05)
(0.6433165202943887 0.230888833253708 2.846048459108739e-05)
(0.01480354313266495 -0.00299516292236762 2.702322995535399e-06)
(0.07275143286681779 -0.01773691401804589 1.046017807172964e-05)
(0.1553147555563186 -0.04824290571983956 2.254377155112547e-05)
(0.2322340786466875 -0.09009461021846051 3.999087469484293e-05)
(0.2804213672311989 -0.1369668401839998 6.171069367668333e-05)
(0.3005338943714045 -0.1828387704882856 8.090861152373884e-05)
(0.3064082965448172 -0.2224489640348749 8.447638227319042e-05)
(0.3132205049374203 -0.2455631322945706 7.11423373843755e-05)
(0.3332347917252301 -0.2350249380929319 5.465187307005373e-05)
(0.3768678603166581 -0.1670497336812 3.786538893968061e-05)
(0.4583985768819799 -0.0116827319193113 2.855287095263299e-05)
(0.5416829513826551 0.1849996618973931 3.03284605855134e-05)
(0.08095935761326356 0.008555615757917105 -1.857348414254481e-08)
(0.2467217892584639 0.02859243537676546 -6.8603975986486e-08)
(0.4146229140862234 0.05602673749415383 -1.439618481371613e-07)
(0.5629168969611996 0.08726870013603424 -2.735604975558414e-07)
(0.6779253301573253 0.1168999061250037 -4.721867883064531e-07)
(0.7584415425923807 0.1409527482625101 -6.824940620688598e-07)
(0.8088039980486115 0.157889558229648 -6.680719933522812e-07)
(0.8333898498540872 0.1712712206505844 -5.453551790593846e-07)
(0.83055026124669 0.1818027663869689 -3.984106465353857e-07)
(0.8108304565015521 0.1923445703917007 1.548865101393723e-06)
(0.7830907970870796 0.218257073192938 8.093231114286615e-06)
(0.7504169291485211 0.2894059957513748 1.490038742869043e-05)
(0.6467696817160896 0.4350834476561476 3.373400296343959e-05)
(0.00640598696370258 -0.001407444075106399 2.201214138120436e-06)
(0.04536079461866568 -0.01176261416327295 8.816827814971602e-06)
(0.1145182501889976 -0.03789137863680127 1.978712688788044e-05)
(0.1876504465661775 -0.07825893847264809 3.664007785483983e-05)
(0.2367713499802809 -0.1266056044245554 5.912631237880996e-05)
(0.2564111052948408 -0.17694521010165 8.135412971743548e-05)
(0.2573067345875094 -0.2250328864622902 8.966952074297253e-05)
(0.2528909036860758 -0.2620198941315722 7.587318699858632e-05)
(0.2529688744871477 -0.2725388555742959 5.582336506337184e-05)
(0.267169553485713 -0.231177495562522 3.490805297073105e-05)
(0.311667711049559 -0.09869971324966036 1.731907421578064e-05)
(0.3920218523592034 0.1212100458965893 1.996357513705198e-05)
(0.475365112672733 0.379541365047412 3.994310712595932e-05)
(0.07867145536597205 0.008156329280317705 -1.127128202878305e-08)
(0.2428992011014565 0.02733420688056991 -5.545117120021221e-08)
(0.4152867538882872 0.05351878292340985 -1.269463837566673e-07)
(0.5754858209707914 0.0844707013486504 -2.5466084068888e-07)
(0.7079402811682008 0.1162524511713477 -4.703425101778994e-07)
(0.808223457210391 0.1448971880627622 -7.015080099002533e-07)
(0.8800368753822463 0.1695557319441483 -6.857219726632468e-07)
(0.9273038734692003 0.1912039909837612 -6.271076181227464e-07)
(0.9564523474735379 0.215909142117205 -1.038345495298508e-06)
(0.9636114090114938 0.2478795934662835 -1.078896675486569e-06)
(0.9486235064654112 0.2932677295915284 9.923539567252784e-07)
(0.9090811177042557 0.3675305842636939 4.673468934920824e-06)
(0.8124524304774359 0.4909706428895935 2.551947575004265e-05)
(0.6056462013939335 0.6044036628641243 5.674152318595587e-05)
(0.0007488252908915367 -0.00034626869089974 1.787879343740283e-06)
(0.02200864264403346 -0.006517299015041552 7.180894945620483e-06)
(0.07385219358767334 -0.02679365342638768 1.665800189220174e-05)
(0.139953141733512 -0.06352041900922283 3.216759462084129e-05)
(0.1896463516412973 -0.111897130445763 5.467878989599655e-05)
(0.2101966732668668 -0.1654776020612232 7.95318086454939e-05)
(0.2083717880032921 -0.2205170824883644 9.36542731332922e-05)
(0.1958037742981575 -0.2692241549557781 8.283203586381213e-05)
(0.1790614735591012 -0.2983595776474594 5.987242843679957e-05)
(0.1651515038757938 -0.2844067014349573 3.681743175994846e-05)
(0.1674020582601733 -0.1850020354353989 1.337993363361721e-05)
(0.2072608033879486 0.02633326501027919 8.019079285554607e-06)
(0.2804697087204637 0.3115309566100695 3.680623651203947e-05)
(0.4007835184527926 0.5612614250443256 5.901092323923893e-05)
(0.07590640998629908 0.007702014824359011 -5.10702500216898e-09)
(0.2373272361372581 0.02601629661531674 -3.639558604001588e-08)
(0.4118615685881704 0.05106805333246191 -1.051262907158581e-07)
(0.5804115871407262 0.08138344709437027 -2.292320290593998e-07)
(0.726145769212316 0.1140915620072095 -4.446921550471394e-07)
(0.8417248925612263 0.1455931967971651 -6.743699398595935e-07)
(0.9285615363419478 0.1743930256742176 -6.214808177970512e-07)
(0.9913466372303896 0.2019890678486636 -5.410412027763667e-07)
(1.036028880509476 0.2318772389984168 -9.146547543056795e-07)
(1.063576382706285 0.2709621497135006 -1.084873345184314e-06)
(1.06710141005958 0.3246256209003167 1.757025060640597e-08)
(1.041460971383601 0.403281437529019 2.098205821417889e-06)
(0.9567174034071492 0.5155137778516583 2.034956401166264e-05)
(0.7810044552410917 0.6135012455550538 4.949131597492293e-05)
(0.5393273138951279 0.615898597465562 4.603963452678853e-05)
(-0.002611889429088619 0.0002729993629322961 1.470979852315389e-06)
(0.005741173400600093 -0.002780384979975085 5.829688142178898e-06)
(0.03826519790015413 -0.01647972719626671 1.354676849770843e-05)
(0.09213203190983482 -0.04695653857833761 2.698153333439034e-05)
(0.1404846112725457 -0.09284579222535295 4.83434232419099e-05)
(0.1625329468053288 -0.1479750171705499 7.500807287100071e-05)
(0.1601192912194413 -0.2082313293242488 9.488291396416637e-05)
(0.1427173129731487 -0.2667220472574144 9.062386993751866e-05)
(0.1141299536937248 -0.3112634558832615 6.670226201371706e-05)
(0.07757030226888549 -0.3225562513225766 4.319362982582266e-05)
(0.04159179336970838 -0.2595958367273853 1.94742233504632e-05)
(0.02951628412355994 -0.0795929171708291 3.627357324828476e-06)
(0.06967575681658636 0.2126264134093945 2.728970784666074e-05)
(0.1821369532116505 0.4889057750454838 5.793935251483276e-05)
(0.3523662243146679 0.6029733764191164 4.650733620029206e-05)
(0.07273396894724306 0.007206134097592391 -2.822876458703227e-09)
(0.2301888385739665 0.02455861053457483 -1.741987703374556e-08)
(0.4051531668778287 0.04853748049517698 -7.910783267046636e-08)
(0.5794985924122372 0.07800364686219488 -1.996436255007515e-07)
(0.7356398228214263 0.1108967396853354 -4.047424828518763e-07)
(0.8634259544306161 0.1439247918366217 -6.245828967402025e-07)
(0.9616737236787953 0.1753083398237049 -5.693047991362641e-07)
(1.033766723055761 0.2055439107288352 -4.780446265932825e-07)
(1.085604225480038 0.2381622545190549 -8.103402192397558e-07)
(1.116862507221825 0.2770255499459288 -9.109897068417926e-07)
(1.127962180317977 0.3295760953319163 7.566298738732724e-08)
(1.112865252941203 0.4024309198391409 1.79384257743724e-06)
(1.050552038097697 0.5013994707253795 1.631680081045239e-05)
(0.9098015223496533 0.5891320664138979 3.769783429981698e-05)
(0.6923635247428797 0.5988555964107469 3.77768028223193e-05)
(0.4577870708951694 0.509816292497174 1.152260067066675e-05)
(-0.004575447649003335 0.000617489190720121 1.231516455655517e-06)
(-0.004308010170045293 -0.0004621002072145715 4.793048166956734e-06)
(0.01265628062549708 -0.008667675579237134 1.09828119953726e-05)
(0.04935225168007146 -0.03081162304986898 2.185762492613498e-05)
(0.09176754236498738 -0.07070644856129107 4.055538999452351e-05)
(0.1148691311276361 -0.1243735044213627 6.747484689094543e-05)
(0.113150437136213 -0.1876462551251116 9.244906519009034e-05)
(0.0943979525293778 -0.2538629099631562 9.746158383672373e-05)
(0.0590222855401079 -0.3111010287987839 7.632574630864138e-05)
(0.007658770278162898 -0.3425423915962507 5.169459886858754e-05)
(-0.05653221525617299 -0.3150022038399317 3.280283403501511e-05)
(-0.1135038384678816 -0.1764434562545079 1.372187028028353e-05)
(-0.1231445674788503 0.08865452523095958 1.881624949076774e-05)
(-0.02609717714469287 0.3882513211442957 5.220126045976905e-05)
(0.1446100191618641 0.5592441615126003 4.542568661260153e-05)
(0.2703519881240593 0.5074912149801954 2.374869609457143e-05)
(0.06914150809951777 0.006682367586487363 -5.418835129635114e-09)
(0.2216186376172037 0.02297205549470652 -9.018355482911361e-09)
(0.3955236321771777 0.04579452485629081 -5.025042425088898e-08)
(0.5738610535357926 0.07435344536120052 -1.680185751492783e-07)
(0.7383447522835175 0.1069057926416945 -3.561108664056733e-07)
(0.8763800877250514 0.140629177102523 -5.658274312100001e-07)
(0.9837703511135417 0.1733680830466082 -5.483247153808604e-07)
(1.062046690509896 0.2048991503462092 -4.730805785971015e-07)
(1.115670364003754 0.2375596698556339 -7.624217896161967e-07)
(1.145309006656222 0.2749717552946411 -8.8869863846512e-07)
(1.15507707902681 0.3217479663465165 -8.117498717590678e-08)
(1.145155271821187 0.3857453454505292 1.389395597746524e-06)
(1.097750871082266 0.468681697279034 1.230093806654712e-05)
(0.9842031309380974 0.5442863451500861 2.638274127086886e-05)
(0.8018486996779119 0.5548919125929687 2.348949157060187e-05)
(0.6002055279082674 0.4732381145129637 8.832046370428055e-07)
(0.3832479384061516 0.2816832880701577 1.356408748508408e-05)
(-0.00577561412470387 0.0008093903658101602 1.056860246926759e-06)
(-0.01046941009645529 0.0008996160844662079 4.010483792267551e-06)
(-0.003736791470430901 -0.003563444587818508 9.01121535857489e-06)
(0.01756700193057393 -0.01793387940875423 1.767026141911349e-05)
(0.04781621203597836 -0.04835140735947582 3.270090467202753e-05)
(0.06925988057108619 -0.09628034537161112 5.735749839678301e-05)
(0.06873792555955416 -0.158616100483267 8.537264184090102e-05)
(0.05070908447334734 -0.2302876364214738 9.961069035991041e-05)
(0.01441725663961107 -0.2978021335353551 8.822952914668793e-05)
(-0.04423524857472175 -0.3444377512128045 6.154700861328393e-05)
(-0.1236356524084872 -0.3462435670627417 4.507862427537239e-05)
(-0.2121987200856713 -0.2529207120243179 3.752052959823855e-05)
(-0.2647103607509466 -0.02853350933596064 3.007719156070176e-05)
(-0.2095537858198369 0.2748096172088798 5.488447986369744e-05)
(-0.0769507306103757 0.4749271259503247 4.891996355045844e-05)
(0.07995454629470738 0.4562138152744688 3.187124620320247e-05)
(0.3327339993162463 0.2726294815407468 1.662523104077325e-05)
(0.06522049720294555 0.006124089879629009 -9.23756629016439e-09)
(0.2116700531111697 0.0213253145788632 -1.744888480496095e-08)
(0.3831774659036485 0.04282550742966966 -2.808523703707474e-08)
(0.5641452796669179 0.07037858595986131 -1.350714692864539e-07)
(0.7354484999283676 0.1022892494891008 -3.086439878333525e-07)
(0.8824740187398301 0.1361111570377453 -5.047012191336342e-07)
(0.9978250833312896 0.1694829045990703 -5.572818887205025e-07)
(1.080581115924933 0.2013168099081832 -5.094460264089319e-07)
(1.133977115838206 0.2333122224407447 -7.549703079538642e-07)
(1.159843807632574 0.267965409343122 -9.413090675390305e-07)
(1.166959211455377 0.3094220870613971 -3.468940829479822e-07)
(1.15663353581646 0.3633107837560999 8.435929490611394e-07)
(1.115555608792516 0.4321621490509023 8.795981496276804e-06)
(1.021061546312824 0.4926257278004462 1.669042756600083e-05)
(0.8710052079442678 0.5011339600957603 1.268617489131965e-05)
(0.696687543154667 0.4255510858692114 -4.619546401961331e-06)
(0.48008334479966 0.2636144331454132 -9.853529655074457e-07)
(0.4996937473639975 -0.04630141987354045 7.911930552533169e-06)
(-0.006646739265289087 0.0009288620410595838 9.292694198726268e-07)
(-0.01443824888275888 0.001684889523626937 3.43954270998437e-06)
(-0.01419483081816266 -0.0004552309088703324 7.524090392167175e-06)
(-0.003470884625442114 -0.009131227016042305 1.44322870695116e-05)
(0.01442064282952475 -0.02982390409732224 2.633622139198829e-05)
(0.02876341412662103 -0.06729205844202693 4.656626524373532e-05)
(0.02849117184115513 -0.1234578883676252 7.4587036263847e-05)
(0.01261805301338621 -0.1953787756391712 9.453851147724541e-05)
(-0.02122938324676952 -0.2715427425526095 9.493477917665162e-05)
(-0.07817017079629478 -0.3299303012288507 7.314700864225073e-05)
(-0.1629938705076555 -0.3523162148697188 5.451268420462581e-05)
(-0.2652895947809444 -0.3018584509618982 5.451469376457181e-05)
(-0.3483523185099361 -0.1246757954217554 5.863543036539344e-05)
(-0.3518210899629163 0.1576080602873074 6.996623605154302e-05)
(-0.274834847540688 0.3429747890732941 5.887335087626645e-05)
(-0.01610699239938298 0.3754501258727185 2.93099676800756e-05)
(0.3590970964896726 0.2252077740621561 1.079716131747418e-05)
(0.5680467016694223 -0.04301465465109693 3.90656999962767e-06)
(0.06196853877752556 0.005590806678166207 -1.069638400770668e-08)
(0.2009136653889987 0.01958579917435821 -3.005635012012654e-08)
(0.3683803269301265 0.03975081676710204 -3.32431898029708e-08)
(0.5504222179838557 0.06599836439094102 -1.017964829866191e-07)
(0.7277128263089672 0.09718816040199635 -2.716925322827446e-07)
(0.8828809011774883 0.1306423192740874 -4.492548751059025e-07)
(1.005665999039106 0.1641546379083012 -5.78045721582513e-07)
(1.092304073006252 0.1958296433861252 -5.646093677654945e-07)
(1.144813799197843 0.2267401516106366 -7.678225744226812e-07)
(1.1669533888416 0.2586685613297089 -9.609873560379088e-07)
(1.170776349498407 0.2948044196339494 -6.359178615687448e-07)
(1.1582738921595 0.3413565330524297 4.111657155561229e-07)
(1.11955735797364 0.3964738024103533 5.813135264899044e-06)
(1.038692501026679 0.4442858123440769 9.428886824138216e-06)
(0.9128876496611821 0.4503555823898823 6.126021400598541e-06)
(0.7691924186087089 0.3865477444716142 -4.393821316062978e-06)
(0.6096395688593188 0.2182489991191834 -1.950727488293272e-05)
(0.4696612220425698 -0.04264855674584942 1.228736936263102e-05)
(0.5262405885137504 -0.202849747948204 8.528761930449647e-06)
(-0.007401403710753032 0.001019394104488669 8.284397287177524e-07)
(-0.01742814354899595 0.002168332342480331 3.023185378078489e-06)
(-0.02120885121831216 0.001354059384105808 6.441804214719968e-06)
(-0.01738514564450716 -0.003613399964760879 1.199845436519918e-05)
(-0.008232482279611117 -0.01676584448432436 2.141176157641531e-05)
(-0.002054296287130084 -0.04275530553657157 3.754260870998495e-05)
(-0.005841378000775713 -0.08682217183860423 6.203808265564523e-05)
(-0.0192206607798695 -0.1523754009724989 8.527468747852693e-05)
(-0.04680804287703477 -0.23094627785634 9.182618132461163e-05)
(-0.09779262910549108 -0.3005906641797348 8.037365854395835e-05)
(-0.1750349513688767 -0.3363522176945776 6.401961387403145e-05)
(-0.2783104592016618 -0.31722864053584 6.100198578413026e-05)
(-0.370304474239233 -0.184736621295333 8.209960212929319e-05)
(-0.4176491236074616 0.05963855070940481 8.168936677638571e-05)
(-0.3495573898099723 0.2060393161596659 5.819966850463458e-05)
(0.0418698269570838 0.2844341370849466 1.616837177495933e-05)
(0.4831871073566459 0.1734814036290532 3.33435881079867e-06)
(0.6689491141393075 -0.03837314870365127 1.4606489406872e-06)
(0.5560829311920167 -0.2147693517224505 5.186017266501821e-06)
(0.06015091001511078 0.005211784140601037 -1.075289749563169e-08)
(0.1919177070763107 0.01788052806064236 -3.479297599756763e-08)
(0.3522402238188818 0.03650380807710209 -5.604140163614376e-08)
(0.5332944982913068 0.06133842897114997 -8.422588774674176e-08)
(0.715349183990004 0.09149079651942663 -2.416644362649464e-07)
(0.8782676980081743 0.1244117374186403 -4.067937750430175e-07)
(1.008448976757145 0.157712935130685 -5.562144799515914e-07)
(1.098999220594133 0.1890007678050065 -6.144444644508671e-07)
(1.15086246018865 0.2187910599811381 -7.860543224793238e-07)
(1.169773452578968 0.2480564649514811 -9.589784353867288e-07)
(1.170474030514209 0.2802049647706283 -8.143579180364998e-07)
(1.155300493566399 0.3200234979182375 5.266481433187077e-08)
(1.118242040585827 0.364941171371384 3.565086087081703e-06)
(1.047514380444364 0.4030099129577039 4.837560881879174e-06)
(0.9430881434362027 0.4075800643306409 2.97988684698877e-06)
(0.8263765185440888 0.3553786491172359 -2.549150729703886e-06)
(0.7172053925535954 0.2094629909481968 -1.871663956064933e-05)
(0.5699117159752258 -0.0126828434163515 3.18953815670281e-06)
(0.6051393318997024 -0.132766193189021 1.4644686520428e-05)
(0.6959044605730088 0.03192987397783584 1.569247082518068e-05)
(-0.008165367681863238 0.001102533360971297 7.410736897444354e-07)
(-0.02005163420456029 0.002516333119057963 2.694919001214762e-06)
(-0.02665333832220084 0.002421401186876047 5.656647362490576e-06)
(-0.02707153562282558 -0.0003832983023836287 1.024492143909055e-05)
(-0.02363587249244619 -0.008426264536151732 1.772223031128156e-05)
(-0.02292822928008167 -0.02509554331144823 3.042234438997693e-05)
(-0.03143302431231441 -0.05550995891215669 5.064029312686174e-05)
(-0.04470360747493028 -0.1073073978774601 7.34564251004753e-05)
(-0.06426131457821854 -0.1806657811611144 8.432745050591998e-05)
(-0.1016155128319055 -0.2549665490285105 7.991082470406377e-05)
(-0.1659499973719644 -0.3033873553800538 6.912908556437095e-05)
(-0.2527558300589741 -0.2940620079780844 6.607303584680574e-05)
(-0.3531030118656684 -0.2079196496146733 8.824734813790404e-05)
(-0.4175672431603838 -0.04628767282518591 0.0001024132201818673)
(-0.2442455935832978 0.1034435133733755 3.222126393134017e-05)
(0.2727653966585449 0.2389287208695411 1.69195895763518e-05)
(0.6594769080764236 0.1273802032461908 4.24123724781051e-07)
(0.7760055949564334 -0.03576012350821112 7.987591466920427e-07)
(0.6693762627665288 -0.1588775064802466 2.603438904236147e-06)
(0.5659416303505542 -0.0419374904165614 1.664491845456876e-05)
(0.05886183110447553 0.004924828511461009 -1.080090073012902e-08)
(0.1866007023939796 0.01662136705409771 -3.494746817765046e-08)
(0.3385208764778844 0.03325987894405785 -6.504705865455857e-08)
(0.5142458219717542 0.05642974331057016 -9.239264532933384e-08)
(0.6986784224472785 0.08525527394380025 -2.122958484787065e-07)
(0.8691466257937659 0.1176018288051387 -3.74950679860784e-07)
(1.006802061774168 0.1503597698766504 -5.040928716396303e-07)
(1.101788051630934 0.1811826056023812 -6.122982409316823e-07)
(1.153634407818197 0.209905510213791 -8.040647546950021e-07)
(1.170071658326997 0.2369111527307973 -9.835559440797279e-07)
(1.167951280591333 0.2659658558630592 -9.17667321153443e-07)
(1.150732103426181 0.3003949116587817 -1.87385359496577e-07)
(1.115091987520997 0.3375891949360079 1.853523959209867e-06)
(1.05343305006653 0.3684790924527894 2.355338986219762e-06)
(0.9666976120257117 0.372367959020127 1.479037155571019e-06)
(0.8719254381150211 0.3308699066327863 1.937516616018278e-07)
(0.7884308259287287 0.2214751668533987 -6.831235544240449e-06)
(0.7847670162739182 0.04105348622131734 -2.307394765747605e-05)
(0.8302962672653006 -0.0157919902993922 1.309886891116491e-05)
(0.8814720792888814 0.1239262709719944 1.109576700945971e-05)
(0.7450609063857757 0.2451588309651074 1.263525749171045e-05)
(-0.008938671949678659 0.001187023271386486 6.591461154620262e-07)
(-0.02267371176211304 0.002817883390634412 2.411177362823116e-06)
(-0.03150091729327707 0.00313106528858576 5.041005557671953e-06)
(-0.03481480541479634 0.001455702439479045 8.980416862152091e-06)
(-0.03470671606169572 -0.003557470569724322 1.506020319170367e-05)
(-0.03716143774401346 -0.01370652077778282 2.503464522474121e-05)
(-0.04825550530875477 -0.03300919851279341 4.130659171092913e-05)
(-0.06289090905347518 -0.06867638960379842 6.153194861459839e-05)
(-0.07578883501726662 -0.1278423146290085 7.505023286164409e-05)
(-0.09691589116000876 -0.1985703148244461 7.430796520816321e-05)
(-0.1384823125428972 -0.2486266653725339 6.899873254351077e-05)
(-0.2051034955632161 -0.2572787271780374 6.843609866828793e-05)
(-0.2888554154084818 -0.2060610111753498 7.79469500343099e-05)
(-0.2938244167706319 -0.1205451502887545 0.0001003067913498446)
(0.05158738233491107 0.1370933569437243 3.303077912327914e-05)
(0.5466655538236932 0.2033277037547349 1.441183224227478e-05)
(0.815119467680868 0.1038894670140693 3.167844467360507e-06)
(0.8806403028532945 -0.01680696860442419 1.132402264310868e-06)
(0.7950764320788583 -0.08803877258612897 2.13458810788959e-06)