/*--------------------------------*- C++ -*----------------------------------*\
| =========                 |                                                 |
| \\      /  F ield         | OpenFOAM: The Open Source CFD Toolbox           |
|  \\    /   O peration     | Version:  v1812                                 |
|   \\  /    A nd           | Web:      www.OpenFOAM.com                      |
|    \\/     M anipulation  |                                                 |
\*---------------------------------------------------------------------------*/
FoamFile
{
    version     2.0;
    format      ascii;
    class       volVectorField;
    location    "2";
    object      URef;
}
// * * * * * * * * * * * * * * * * * * * * * * * * * * * * * * * * * * * * * //

dimensions      [0 1 -1 0 0 0 0];


internalField   nonuniform List<vector> 
4032
(
(0.01792928176097913 -0.01617762179943905 5.876588988038541e-06)
(0.009575344384946794 -0.007360868819783634 5.321037690406453e-06)
(0.02046787494859604 -0.01617615084111686 6.075587732824125e-06)
(0.03263812459851882 -0.02900985163023579 1.488584863401197e-05)
(0.004383127683600403 -0.003590893219785288 5.430939911360625e-06)
(0.02634117335993031 -0.02311019601938579 1.573715878634081e-05)
(0.01792723204807681 -0.00699005322568811 4.158783633642576e-06)
(0.03193065900364157 -0.02316571985919189 1.25799068797122e-05)
(0.04791719680387517 -0.04254693257186645 2.319524464968242e-05)
(-0.0005941331643904266 -0.001437484842203887 5.567127636311174e-06)
(0.01862174236118193 -0.01753624071014162 1.661798490048042e-05)
(0.04181021425211096 -0.04215807785102241 2.59473433574896e-05)
(0.02343653908991612 0.002801093939184393 3.140121762056931e-06)
(0.03318968944325198 -0.009418857504805823 9.160600591926224e-06)
(0.05061133491068151 -0.03053748139976071 1.87834451506648e-05)
(0.06716694274157935 -0.05640348084662394 3.115234379730547e-05)
(-0.005281000273134058 -0.000108461084195439 5.647297302850107e-06)
(0.008513205255851686 -0.01253083622970947 1.728126047314723e-05)
(0.03363045759252629 -0.03877877651138317 2.80765573826763e-05)
(0.05944900764149281 -0.06208417581237521 3.55649397152186e-05)
(0.0412563963213942 0.01542146645269044 2.62917018709565e-06)
(0.04655045750967862 0.006340676010969026 6.557384301088315e-06)
(0.05725130975215837 -0.01209757139362676 1.367750425545223e-05)
(0.07266431848441843 -0.03910300947060985 2.487723969774237e-05)
(0.09135876365715906 -0.07201538047141554 3.848158638617472e-05)
(-0.009828629892737717 0.0008963021863726267 5.665564927526986e-06)
(-0.002908428402963857 -0.008433613048756092 1.768929531839941e-05)
(0.02125488693740489 -0.03345859280752711 2.964255645784528e-05)
(0.04940633006774905 -0.06286615346470852 3.878711493346028e-05)
(0.07968080052578046 -0.08366944038864318 4.370583231417279e-05)
(0.05157941635561469 0.01977956040770741 1.09361708503843e-06)
(0.07604041215663475 0.02283077063551503 4.50988573386059e-06)
(0.0787284686012842 0.007505884024732746 9.34547211108857e-06)
(0.08468229257426146 -0.01609648907418678 1.791871427544719e-05)
(0.1002664029367969 -0.04954091851602161 3.084788131071645e-05)
(0.1206503768687474 -0.09021438782741838 4.451195898251096e-05)
(-0.01437962247204476 0.001814318389252703 5.623650944773462e-06)
(-0.01506403951441099 -0.00492792066907876 1.787624387422295e-05)
(0.005752100442276738 -0.02773623922709501 3.068722750069533e-05)
(0.03431886277795053 -0.05962446729839058 4.115394475552105e-05)
(0.06457217182709707 -0.08926922150363983 4.71776403425452e-05)
(0.1014776457088194 -0.1078362599167434 4.91602427212444e-05)
(0.04827178368406251 0.01095599545749707 3.582691454347298e-07)
(0.1108032406364381 0.03175073692764955 2.303913798547683e-06)
(0.1192620308440541 0.02725909164941233 5.763155072340244e-06)
(0.1144126014307606 0.007151466148056619 1.167867606274558e-05)
(0.1171727945845743 -0.02175751260674841 2.198768813911943e-05)
(0.1346169117153733 -0.06234066157849417 3.646037334741913e-05)
(0.154847282190174 -0.1114044179704291 4.865796345411985e-05)
(-0.01890290958406887 0.002702885492958603 5.531621023052235e-06)
(-0.02776066393468317 -0.001654797983535415 1.787496715497254e-05)
(-0.01190024061956825 -0.0219280410234375 3.129189162806206e-05)
(0.01525070007903921 -0.05427036142178199 4.282436340895708e-05)
(0.04400378124558023 -0.08934409806103835 4.953447108490153e-05)
(0.07713038013686049 -0.1185147367680787 5.156346660020136e-05)
(0.1239148934846483 -0.1355168569069158 5.121934833142473e-05)
(0.05019262736310316 0.007904121876162799 1.186661851529382e-07)
(0.13008561478257 0.02723060051177945 9.181064943650822e-07)
(0.168813742103379 0.0402035805788923 2.810082662240147e-06)
(0.1665055178434404 0.02988768756192967 6.564653293833226e-06)
(0.1554687306088297 0.005425184404816569 1.364605597290105e-05)
(0.1563953128345392 -0.02917981131602027 2.589637628106811e-05)
(0.1767181537862007 -0.07746103829403982 4.156510992051202e-05)
(0.1947122573959143 -0.135410823775527 4.958169122522337e-05)
(-0.02322533165481578 0.00355456584994667 5.375219812105552e-06)
(-0.04075534426008283 0.001596063533428648 1.766687080933401e-05)
(-0.03106411306923528 -0.01595813941090623 3.153052464113757e-05)
(-0.006635092110596911 -0.04748274092348726 4.394088444063775e-05)
(0.01969924422095394 -0.0856898161879223 5.118393067647482e-05)
(0.04740762988879553 -0.1224174253813741 5.280750686341521e-05)
(0.08602663332273323 -0.151856722944417 5.154266882562709e-05)
(0.1472946797920501 -0.167638928800741 4.916361768514019e-05)
(0.05159464582779003 0.006421466065745537 3.129641801220598e-08)
(0.145707669340354 0.02354871733937032 3.133404825438104e-07)
(0.2086547926676587 0.04070089628951173 1.088647535813621e-06)
(0.2323957583057657 0.04594674129070801 2.902233395590125e-06)
(0.2209130263625871 0.03140550162661143 6.996455080280232e-06)
(0.2039549461631546 0.002689914703936762 1.527799582162943e-05)
(0.2040947851137248 -0.03808598827076135 2.977657956749954e-05)
(0.2281818461761248 -0.09426808970820534 4.519226366050995e-05)
(0.2419813750693223 -0.161319289247003 4.694640435097503e-05)
(-0.02702308503203202 0.004314330471277478 5.144024987688431e-06)
(-0.05361051203707203 0.004841566208636639 1.723606013729307e-05)
(-0.05119853314976042 -0.009673043025576677 3.142391510405779e-05)
(-0.0304880783759662 -0.03947968047190069 4.460478835435272e-05)
(-0.006811921243734783 -0.07903424174066365 5.241278145418664e-05)
(0.01542158258072161 -0.1210170652432326 5.365384482631098e-05)
(0.04411273193986151 -0.1600799769793763 5.134443185379972e-05)
(0.09227153317312743 -0.1908487801136888 4.781573708780425e-05)
(0.1733127740327664 -0.2041832894143994 4.436406592890146e-05)
(0.05266288517702883 0.005854164185719944 -6.152604154893889e-10)
(0.1556313183538612 0.02069093470087277 7.33675443822032e-08)
(0.241680579117372 0.03925500501860171 3.29220814380402e-07)
(0.2916691142966469 0.05110424604043454 1.000312538146456e-06)
(0.3047469190743269 0.05057391059782224 2.739057090040521e-06)
(0.2850958430499883 0.03261706240042347 7.09611787096955e-06)
(0.2619552953348376 -0.0005534477551582516 1.656507097103919e-05)
(0.2627375682019987 -0.0476115404665361 3.326623171539206e-05)
(0.2906661917258965 -0.1111461229982139 4.628094683764763e-05)
(0.2990503274121866 -0.1844693965305881 4.23686984801043e-05)
(-0.0298794687550343 0.004892439014891708 4.816637947366205e-06)
(-0.06554266191945919 0.007959357263056931 1.655311456486816e-05)
(-0.07165672427429381 -0.003012808461238312 3.092719512747795e-05)
(-0.05560315009262817 -0.03030140221943444 4.486621390744772e-05)
(-0.03455218132907874 -0.06978927313844548 5.339501188599301e-05)
(-0.01697288516789205 -0.1148981713113835 5.450016660731504e-05)
(0.002507024292916532 -0.1611515686979788 5.150174136991083e-05)
(0.03592939593881858 -0.2043199299182258 4.743907233494001e-05)
(0.09770848088753409 -0.2362314198934954 4.366191930241282e-05)
(0.2033515300611397 -0.2415988997400316 3.972343012720305e-05)
(0.05340710090928312 0.005659756253145268 -1.109812042174352e-08)
(0.1618562243546842 0.01912269782509106 -1.240796571547288e-08)
(0.2646466461795668 0.03675539362369883 4.124754406028308e-08)
(0.3420517253215709 0.05278748601302399 2.27603760797651e-07)
(0.3830176880214622 0.05989957067394507 8.024679040544833e-07)
(0.3884491618581961 0.05521256107596071 2.421143267828373e-06)
(0.3615317106817451 0.0342536190937516 6.7776106378853e-06)
(0.3324292464550499 -0.003305618971263069 1.738297138425294e-05)
(0.3348184968989109 -0.05588543320676781 3.57183530987457e-05)
(0.3677586512611651 -0.1233678905357473 4.51743148193623e-05)
(0.3672866328571656 -0.1960444791090092 3.610317737495379e-05)
(-0.0313269737947314 0.00519718147026289 4.370148859292164e-06)
(-0.07545107130692061 0.01070347727147043 1.555070403661926e-05)
(-0.09136882528301749 0.003870302657389528 2.993724219995052e-05)
(-0.08127308218666605 -0.0199889751697627 4.468169212069325e-05)
(-0.06284644737948167 -0.05815732010565086 5.421404869676485e-05)
(-0.04879033825423422 -0.1046261357290445 5.549460805216377e-05)
(-0.03691087383529212 -0.1555742451012382 5.216816623552091e-05)
(-0.01696453193062001 -0.2081511370397193 4.814095412204167e-05)
(0.02398441467414112 -0.2566547863609637 4.540352308757128e-05)
(0.1024046795149798 -0.2860663004790409 4.234511870820786e-05)
(0.2396162667470963 -0.2706221863623224 3.391018934792325e-05)
(0.05376511272160699 0.005561782110898913 -1.392013498259581e-08)
(0.1656701301753037 0.01833798033036132 -3.870701865814325e-08)
(0.2800393339426065 0.03490874568516558 -5.356645698064274e-08)
(0.379343573189506 0.05213601085630926 -3.453173309481673e-08)
(0.4496006734678044 0.06495964559945679 1.048071588086804e-07)
(0.4847234939567188 0.06839466047997299 5.936515491691181e-07)
(0.4854046413719881 0.06076566681633693 1.865151952493911e-06)
(0.4533011943017283 0.03740904522742979 6.067497039783388e-06)
(0.4183392997136903 -0.003780831047047945 1.752318738042838e-05)
(0.4234540908418998 -0.05892808815839422 3.698543649176359e-05)
(0.4586316691954923 -0.1219187620913097 4.251544557190717e-05)
(0.4485395383469566 -0.1765518187304633 2.695209931357962e-05)
(-0.03109186019883992 0.005172165732954401 3.807326937921984e-06)
(-0.08197452247390188 0.01275428053850948 1.415486456123531e-05)
(-0.1088219021225232 0.01051403147516678 2.835454952917449e-05)
(-0.1064755509783624 -0.008752684744207836 4.389583113922636e-05)
(-0.09107462217268253 -0.04434128416052444 5.483503628299795e-05)
(-0.07944534021567502 -0.09057947677056015 5.664764260481991e-05)
(-0.07307662762405626 -0.1439941660525499 5.320221949901821e-05)
(-0.06400019267335219 -0.2028624177982195 4.944668451385823e-05)
(-0.04182687879577977 -0.2639241386395874 4.807672564226485e-05)
(0.007796247964270264 -0.3164143534356046 4.821266840235373e-05)
(0.1070778816964768 -0.3325209829125444 4.110961098922542e-05)
(0.2818568801049117 -0.2735297779987379 2.293916873963871e-05)
(0.05379192078918312 0.005465142593835069 -1.353930223068958e-08)
(0.1677536019826077 0.01787349274526738 -4.452517402942715e-08)
(0.2900295490500961 0.0337012795864162 -7.93437738437497e-08)
(0.4057836833034072 0.05126276741823974 -1.122296551768052e-07)
(0.5002486276672365 0.06685893456379691 -1.061213590392622e-07)
(0.5650862505554243 0.07673802135320078 1.239772712604144e-08)
(0.597288650957059 0.07760674064892178 2.703772003269414e-07)
(0.5964976002336282 0.06825868026670102 1.213389885189098e-06)
(0.5619409684191391 0.04404389461277219 5.053296842437639e-06)
(0.5236685579906896 0.002288279332392413 1.657926545920228e-05)
(0.5307689006232312 -0.04820280655855482 3.701338861445974e-05)
(0.5683893840531106 -0.08929236431832478 3.794431529841191e-05)
(0.542620562832237 -0.1044536088820836 1.791667953063346e-05)
(-0.02926712018741928 0.004848701166378765 3.205582231527317e-06)
(-0.08401376542137401 0.01380577542413618 1.235747858101385e-05)
(-0.1219500604381938 0.01628279596617714 2.602996994268111e-05)
(-0.1297164731434855 0.002837462039695824 4.225093461031846e-05)
(-0.1184088692048002 -0.0286873790064142 5.503174763628983e-05)
(-0.1084022162743769 -0.07314113149031763 5.80312272317206e-05)
(-0.1054668517821325 -0.1268824593568928 5.424972797331132e-05)
(-0.1040164057474268 -0.1891734019959526 5.089950671291338e-05)
(-0.09617584741232812 -0.2585739339769612 5.054393188204667e-05)
(-0.07189383120798976 -0.3289260389888309 5.383392630599374e-05)
(-0.01222886110812301 -0.3774899079509386 5.310127682852689e-05)
(0.1116699770406988 -0.359298938208146 3.306555285109225e-05)
(0.3364743746541813 -0.2247521967076546 -3.562869431308585e-07)
(0.05352303256045291 0.005351828053285536 -1.169067233360443e-08)
(0.1685266802349964 0.01748259780165087 -4.272421147844972e-08)
(0.2961236151038356 0.0328434164386126 -8.310415898736335e-08)
(0.4239335789828306 0.05045566231692954 -1.321205324461308e-07)
(0.5373697547693285 0.06772323514709093 -1.706671833909135e-07)
(0.6263558456169224 0.08133424001894374 -1.563995627880801e-07)
(0.6873341412346042 0.08895809707874873 -1.465624886626655e-07)
(0.7188638810046258 0.08847527361170172 -3.958489138505113e-08)
(0.7201545702211748 0.07945772536539117 5.907116216862853e-07)
(0.6905826365502055 0.05830995458171556 3.604190533602356e-06)
(0.6531212263910988 0.02251982200878005 1.465095528940503e-05)
(0.6576410369420576 -0.01135502195028418 3.385164175858335e-05)
(0.6798236832018006 -0.01264393893186849 4.011929638120324e-05)
(0.6307788573928547 0.06684193017026716 4.696486334211224e-05)
(-0.02641721451774188 0.004338222429846441 2.624939609345759e-06)
(-0.08135987045720926 0.01383068395625857 1.044036090205421e-05)
(-0.1287778239910736 0.0204370510790787 2.287666864667289e-05)
(-0.1487915286936545 0.01383431241163165 3.94627546231785e-05)
(-0.1437271363266121 -0.01192051526716479 5.438789641034082e-05)
(-0.134990157969865 -0.05287212882175486 5.956263677962189e-05)
(-0.1336223293313707 -0.1048778706210072 5.564643000486515e-05)
(-0.1365356224364543 -0.1677347076493451 5.204294874322356e-05)
(-0.1380865157293061 -0.2414769550371608 5.220755285776961e-05)
(-0.1314954491029516 -0.3237417188704299 5.726974625904696e-05)
(-0.1050676975953454 -0.3990827379175682 6.34762454575826e-05)
(-0.03505750355171115 -0.4256361301221925 5.353521841996696e-05)
(0.1239198994352547 -0.3459850307167537 9.690069012391439e-06)
(0.3997367184950556 -0.06551681400433355 5.176399979953987e-06)
(0.05291114623694804 0.005206581350574103 -9.723903334810208e-09)
(0.1682066115536562 0.01710422375209667 -3.783849857256908e-08)
(0.299291356111424 0.03210332655328831 -7.949379789358826e-08)
(0.4358593481009586 0.04967640221951771 -1.349072877401096e-07)
(0.5638697701217035 0.06796078557219444 -1.935962965161357e-07)
(0.671834941988505 0.08416983914311395 -2.218054812581232e-07)
(0.7547986455231991 0.09599272864307377 -2.598817587449123e-07)
(0.8122305183406616 0.102311870532014 -2.977387755112629e-07)
(0.8448338778814112 0.1023548714208175 -2.917452166464359e-07)
(0.8542334927330926 0.09743554956104485 -4.4124356327607e-08)
(0.8364014698951551 0.08642060669560475 2.385770745588018e-06)
(0.8065206419816886 0.07074341895784272 1.088396848085353e-05)
(0.8022128430417993 0.07543898135318562 3.262422320857129e-05)
(0.8077888284800381 0.1606856231157775 6.409123112000155e-05)
(0.7092590669300511 0.3452251557389649 8.002940464385314e-05)
(-0.02310344099926765 0.003755120539718902 2.101220981742418e-06)
(-0.0752133490086363 0.01300520662771742 8.56174520170283e-06)
(-0.1280231165225361 0.02249250416903078 1.945166498182602e-05)
(-0.161212632702434 0.02297833841256346 3.53060412470452e-05)
(-0.165364370374365 0.004921504996472809 5.234076963226608e-05)
(-0.1585747691126231 -0.0308686138107217 6.076580269184389e-05)
(-0.1571844215006977 -0.07902506907203219 5.77411467415998e-05)
(-0.1613098720741329 -0.1396304961657666 5.313607957587629e-05)
(-0.1669964000977251 -0.2134846401641283 5.303651253644059e-05)
(-0.1711783026207946 -0.3018158577216323 5.792883689599511e-05)
(-0.1653212649601279 -0.3955461996157426 6.740355604808535e-05)
(-0.139122902746676 -0.4642125791236709 7.328454917912622e-05)
(-0.04675010670058716 -0.445089629437994 4.652875440736876e-05)
(0.151601539743004 -0.2281344843717588 -6.692698040641136e-06)
(0.4687529576437804 0.2338856232448689 5.820288067980713e-05)
(0.05197209235305905 0.00500527592066434 -8.490600163196253e-09)
(0.166786805166249 0.01665904689827215 -3.183122816441742e-08)
(0.3000509670392265 0.03137598176533243 -7.263365520879858e-08)
(0.4429745754898242 0.04882204619143129 -1.315610670685547e-07)
(0.5822029312259965 0.06773897229695512 -2.022636708655538e-07)
(0.7050064701297336 0.08569828720546037 -2.542949789530454e-07)
(0.8045499088225243 0.1005512440125246 -3.069564433315117e-07)
(0.8795864354798975 0.1110744631045615 -3.680209736048145e-07)
(0.9327218546720161 0.1174751319608129 -4.608848886528198e-07)
(0.968253480072596 0.1209928822114698 -5.581454041111197e-07)
(0.9883287078146525 0.1253448325934389 -1.652814856793778e-07)
(0.9921300552668284 0.1371497257002151 1.162380905137973e-06)
(0.9851697178339979 0.1656729464609937 1.278295934290339e-05)
(0.9793564221522758 0.2496469409635322 4.739767333782993e-05)
(0.9026147768224968 0.4128642926650377 7.888725612030378e-05)
(0.7053149684304563 0.5278664948416529 7.757127923235438e-05)
(-0.0196554348039491 0.003154556663015067 1.660531102099995e-06)
(-0.06712407300674926 0.01170173059108249 6.86046384152866e-06)
(-0.1211589380128816 0.02263456529509361 1.605689796736942e-05)
(-0.1645154715015026 0.02908008564664534 3.021040851398206e-05)
(-0.1811561288893339 0.02017297508861453 4.82732559063764e-05)
(-0.1783630124321397 -0.008317025408250104 6.086554801613481e-05)
(-0.1761748508846178 -0.05117060940531332 6.016545675653384e-05)
(-0.178753069593602 -0.1065793827812601 5.445966604402083e-05)
(-0.1831762829024008 -0.1767830126067896 5.312416654268442e-05)
(-0.1896018756827481 -0.2637294340014338 5.66322672287503e-05)
(-0.195097661508834 -0.3677616180098081 6.534460460937723e-05)
(-0.1947434671600513 -0.466510256123274 7.723367674844702e-05)
(-0.1571562509918357 -0.5067067373342004 8.143205386243623e-05)
(-0.04681383748300872 -0.381110004504056 3.673182558940982e-05)
(0.2116165588901887 0.06730833096662001 4.437120718352482e-05)
(0.4964581806437273 0.4616339398989513 7.404834288353437e-05)
(0.05079353929260178 0.004780125437043693 -8.907972177212511e-09)
(0.1642277037021731 0.0160296027210126 -2.762543610346471e-08)
(0.2987206564793525 0.0306097232557993 -6.420318554597514e-08)
(0.4461438351826312 0.0478458496542162 -1.250246888660577e-07)
(0.594095382776113 0.06710102515360046 -2.033295219700419e-07)
(0.7287141820066194 0.08624594880448543 -2.716169000058356e-07)
(0.8408861198672755 0.1031654687337364 -3.318564262331609e-07)
(0.9277070426708591 0.1166216778375696 -4.041307620635356e-07)
(0.9914119882777798 0.1265823933440189 -5.348335123695462e-07)
(1.037763418560113 0.1350649237332139 -6.934212052329979e-07)
(1.071875638986856 0.1452680839019725 -4.578705096957238e-07)
(1.100341928100803 0.1656387962054672 -1.664953389537713e-08)
(1.119871367637428 0.2100025278598876 7.687044797067454e-06)
(1.118802730530217 0.2986388413052546 3.363096076703774e-05)
(1.046461146760954 0.440926032165268 6.256951798444496e-05)
(0.8742349763179205 0.5438137061796581 6.954743122271612e-05)
(0.6737037311273747 0.5560113326771017 5.344848437842686e-05)
(-0.01643339266558545 0.002598907417980866 1.316543629276951e-06)
(-0.05818141280948782 0.0101459633201114 5.422589248483632e-06)
(-0.1103091054763889 0.02137215948391696 1.290730314074759e-05)
(-0.1593880479993545 0.03175595358445629 2.541162465003678e-05)
(-0.1883983466962947 0.03199788379289839 4.231913067044673e-05)
(-0.1932013231574474 0.01297256619438601 5.865202580358265e-05)
(-0.1907843884181922 -0.02280677894052783 6.233072615765764e-05)
(-0.1901550618753825 -0.0717785885475179 5.620050990701587e-05)
(-0.1891820431475423 -0.1344797219674198 5.263373090664939e-05)
(-0.188757974576544 -0.2159376015624866 5.398982791963418e-05)
(-0.1903666539020584 -0.3149338268631628 5.97111203383522e-05)
(-0.2058322494369982 -0.4377877387901808 7.025793580251382e-05)
(-0.1965726276311703 -0.5212179813140273 8.482912588879246e-05)
(-0.1598879934999078 -0.4928956720903139 8.982459181572967e-05)
(-0.008427755427079601 -0.1256877764499119 5.417612089530276e-05)
(0.2771056673978468 0.3393454804645616 6.582869040052091e-05)
(0.5089554303940268 0.5378607257087503 5.599781470268912e-05)
(0.04930809579563216 0.00452920474202893 -9.97067698561838e-09)
(0.1607060310663857 0.01531823008777064 -2.900695995021395e-08)
(0.2951498359820053 0.0295309749922832 -5.527678821241891e-08)
(0.4459686912361694 0.04685556265938393 -1.171093328670928e-07)
(0.600684959746268 0.06607641502129558 -1.995575275703861e-07)
(0.744943411669889 0.08597995578512858 -2.795252908838435e-07)
(0.8671306416504613 0.1043260045076127 -3.465452335321992e-07)
(0.9619248593840478 0.1196857457436652 -4.27836216054664e-07)
(1.030326130582297 0.1318985360123917 -5.94609821809862e-07)
(1.077984389407191 0.1427695412243212 -8.112618473195369e-07)
(1.112188069206204 0.1557806367806773 -6.394497591397479e-07)
(1.141893202818884 0.1780229887353161 -5.583362527543112e-08)
(1.168798256854456 0.2207627783430807 7.080914851928945e-06)
(1.179914816119404 0.3020753953346182 2.732549578982326e-05)
(1.130333452410429 0.4264028130554263 4.880055060452611e-05)
(0.9892091907236076 0.5200156323766461 5.322279073101234e-05)
(0.7964423949258783 0.5323460490963341 4.194794438107012e-05)
(0.5717693279834546 0.4365228217607521 1.631184555888584e-05)
(-0.01359714968155168 0.002114506153125767 1.067069085785303e-06)
(-0.04950499764038099 0.008574129350789493 4.296660945362565e-06)
(-0.09736871892343664 0.01922717213412554 1.021676827924422e-05)
(-0.1482822429393493 0.0317654521876186 2.055299088376374e-05)
(-0.1860087190594615 0.03881776556071759 3.620737959995654e-05)
(-0.201215440620519 0.03099294591115256 5.366805397307346e-05)
(-0.201017781312196 0.004024185947149557 6.281173950140439e-05)
(-0.1970116084142493 -0.03732157893424504 5.855915288636398e-05)
(-0.1891928847595532 -0.09136570932704725 5.254220940168021e-05)
(-0.177735680570922 -0.1628135489617879 5.116118602139357e-05)
(-0.1619681567400036 -0.2519870194053778 5.322898841257782e-05)
(-0.1622602049542591 -0.3678432873451211 5.747263699693797e-05)
(-0.1714659077107538 -0.4906725682550072 6.728839689737468e-05)
(-0.1813670435217324 -0.5347037579129906 9.194309275787516e-05)
(-0.1326065738639936 -0.3030315962915038 9.038763966453975e-05)
(0.09145570378754371 0.1857700202260625 5.607265896725675e-05)
(0.3195039054715589 0.4712472783705936 5.011555242645424e-05)
(0.4614804753117112 0.4446646959539308 2.184342220169134e-05)
(0.04818809882143269 0.004264516216314031 -1.0051045291227e-08)
(0.1564540070272213 0.01454718952560335 -3.251783725507539e-08)
(0.2895911015686697 0.02824152449666508 -5.510871788834146e-08)
(0.4425165370506656 0.04539540877808389 -1.056829597012097e-07)
(0.6026486533997876 0.06470868020509302 -1.934201455067349e-07)
(0.7550305916294204 0.08501379785706772 -2.816239521875142e-07)
(0.8855666053230743 0.1043208709964435 -3.551899246045467e-07)
(0.9861559994923113 0.1209413198500811 -4.441719984112769e-07)
(1.056044127009441 0.1344209192415324 -6.437494145497833e-07)
(1.101005500886721 0.1466359559760529 -8.973746446064127e-07)
(1.130229443670083 0.160498594632519 -8.154237484559527e-07)
(1.154846836436575 0.1823780049085135 -1.278418648634315e-07)
(1.177376607970991 0.2213031243853902 6.177403052279121e-06)
(1.189300595847528 0.2901676776244922 2.045765300508254e-05)
(1.15589359533049 0.3918010009671843 3.381081292671012e-05)
(1.041642296661442 0.4739165660429607 3.562955104391939e-05)
(0.8739625340105946 0.4847395169534608 2.687449547611075e-05)
(0.6694611660067802 0.3911603148561062 8.613770805348689e-06)
(0.5344722536516904 0.1495483702483904 5.215097921100276e-06)
(-0.01121893647469691 0.00171287850661398 8.919464481258473e-07)
(-0.04170643244490626 0.007127835886949585 3.478763933648834e-06)
(-0.08424786208487932 0.01669786526024033 8.092074015159354e-06)
(-0.1335505699577785 0.0298230237452093 1.634193827786464e-05)
(-0.1766297799878681 0.04156528050308715 2.98088979929274e-05)
(-0.2005438116418554 0.04316693552829765 4.706948087414789e-05)
(-0.2062130670389451 0.02755546706218402 6.047478880709414e-05)
(-0.2006252938888049 -0.005295053485586287 6.052375660277263e-05)
(-0.1867613358374255 -0.05041533410574658 5.366736359514175e-05)
(-0.1635142428439756 -0.1122139468127521 4.913265015180146e-05)
(-0.1291464187246405 -0.1883894578702863 4.691458616397527e-05)
(-0.09656452068423524 -0.2969523711174361 4.748756859927717e-05)
(-0.05062388057215869 -0.4092312607183414 4.068245426669829e-05)
(-0.06908828350459095 -0.4799775299646859 5.594310919956399e-05)
(-0.1527470148333325 -0.376191242282114 7.777162421932285e-05)
(-0.08071316785169987 0.002522232464768793 4.254092772229629e-05)
(0.1240155292335013 0.3428893944407157 3.988575519431954e-05)
(0.3726506282510264 0.4028752755192807 2.272290808971747e-05)
(0.5722262267667182 0.1652404384052351 5.935405991087886e-06)
(0.04806837477188906 0.004096076377703269 -9.87481258804215e-09)
(0.1532799407430031 0.01369125922474314 -3.271564224752321e-08)
(0.2829468816153611 0.02685384647394083 -6.151444554827626e-08)
(0.4357722434777314 0.04347327799450321 -9.912249474893513e-08)
(0.600684496876383 0.06311169540885857 -1.864563208893314e-07)
(0.7598050357652039 0.08343851706092302 -2.810529651723978e-07)
(0.8977439349659163 0.1033474973815889 -3.594620207860166e-07)
(1.003026443179153 0.1207928594024034 -4.535883497516359e-07)
(1.072996035133039 0.1349946760441836 -6.836677398874538e-07)
(1.113891046141366 0.1478514359213368 -9.603331017983652e-07)
(1.137429159430865 0.1619595032064843 -9.174806321722321e-07)
(1.156324636290237 0.1827372136510175 -1.641660258273216e-07)
(1.172763393228398 0.2173625561257548 5.008401898588629e-06)
(1.178923897183281 0.2741818539798236 1.373048041133346e-05)
(1.149065905003462 0.3557071679988242 1.784334176327956e-05)
(1.054719062302123 0.4223993595342189 1.876043507376802e-05)
(0.9181153163241911 0.4314527444536592 1.386615040676802e-05)
(0.7511936669099964 0.3394585231696031 3.376589876208806e-06)
(0.5592785357142025 0.1237980267044268 2.62177516440578e-06)
(0.578939907499603 -0.06878716667275153 6.835791452671732e-06)
(-0.009269144735348579 0.001386791333302537 7.648989882205824e-07)
(-0.03509819420838364 0.005887877451796204 2.905021376236446e-06)
(-0.07215997130479677 0.01415996877877218 6.539668370080736e-06)
(-0.1177331660753503 0.02670929837590041 1.296298889072682e-05)
(-0.1624237842802348 0.04092269089587604 2.398820578036949e-05)
(-0.1931090006689908 0.04974013689036344 3.999719952121362e-05)
(-0.2051124861139254 0.04487969681751763 5.542806311679911e-05)
(-0.2010876440389356 0.0229114298526858 6.041625868314892e-05)
(-0.1832985268795113 -0.0140741282958897 5.501287906141412e-05)
(-0.149527906727688 -0.06649798237598933 4.786014118767909e-05)
(-0.09709961670772553 -0.1303739996543729 4.170073120575627e-05)
(-0.02685948907504655 -0.2307395208896963 3.637585294436319e-05)
(0.1078909773386914 -0.3277005605170662 2.087222149610154e-05)
(0.193176389362867 -0.3470630070429521 1.573687575973431e-05)
(0.06347231680862894 -0.3306536299571803 3.642857789252229e-05)
(-0.07584489926774042 -0.1146398784362733 2.587472647140327e-05)
(0.05214724449616892 0.2137230114304309 2.700397408079442e-05)
(0.3747228777812625 0.3322776822747895 1.743309735476837e-05)
(0.660613610083973 0.1716341981977464 5.344039010556105e-06)
(0.6304707634960405 -0.06678881641620404 4.675345991317647e-06)
(0.04812539799631609 0.003969601037236532 -1.000120302336048e-08)
(0.1527284279380842 0.01310179505536926 -3.210438570234754e-08)
(0.2779635691403486 0.02524413782725168 -6.151868409991246e-08)
(0.4276611480360926 0.04137003166313678 -1.018953240607571e-07)
(0.5941893737616182 0.06060283524369444 -1.76341472637701e-07)
(0.7598845192221708 0.08150211439645681 -2.789003070515214e-07)
(0.9046301162709194 0.1015238832899565 -3.628854905824308e-07)
(1.01427630610838 0.1195099539679844 -4.550241500151851e-07)
(1.083952752568185 0.1341194604074452 -7.142335154125927e-07)
(1.120782514850568 0.1472914802323824 -1.015388407115786e-06)
(1.139025381956023 0.1611441250440254 -9.760625109405592e-07)
(1.15234144480364 0.18060053005906 -1.479483024737477e-07)
(1.162360652325019 0.2113128607311817 3.590210080436858e-06)
(1.162940782705246 0.2590102542774024 8.476399226213606e-06)
(1.134262745316688 0.3239260388829012 7.32085248021949e-06)
(1.056404808398112 0.3775831405221182 6.444014644084851e-06)
(0.9450839209291302 0.3856111618956984 4.589252821629905e-06)
(0.8126793339984332 0.3136762192793932 7.487349178265845e-07)
(0.6923770775009321 0.1246099774807935 -5.314972976210628e-06)
(0.6322463516325508 -0.02084757865635722 8.333969248037761e-06)
(0.6926069921444353 0.02248329689224225 1.005376410405416e-05)
(-0.007700113854608463 0.001126951640174289 6.684739204623123e-07)
(-0.02965529458969757 0.004861322838030775 2.489352848685133e-06)
(-0.06179925517064466 0.01187266250644904 5.450975068707386e-06)
(-0.1026388483047253 0.02313079700057593 1.045859134823407e-05)
(-0.1460846674457756 0.03791685168678728 1.914325060051406e-05)
(-0.1806765575628577 0.05171466637816712 3.284709996007287e-05)
(-0.1985080738004862 0.05552117193258012 4.878085883580455e-05)
(-0.1976540434230603 0.04494006916854712 5.782188780486042e-05)
(-0.1792412878648871 0.01723356732540508 5.465354262055811e-05)
(-0.1377242633655723 -0.02716133829408551 4.643931381410636e-05)
(-0.07046646616900881 -0.07928094777892078 3.721606649325611e-05)
(0.03731380681181852 -0.1727844064756763 2.777434344050901e-05)
(0.2463166159859139 -0.2564907182339994 5.432790560637167e-06)
(0.4048141425200211 -0.2532179528722982 -8.74229631170995e-07)
(0.3757998109258132 -0.2021212517962984 8.75191983515784e-06)
(0.2725772636370954 -0.06378538765945165 1.824330494655846e-05)