/*--------------------------------*- C++ -*----------------------------------*\
| =========                 |                                                 |
| \\      /  F ield         | OpenFOAM: The Open Source CFD Toolbox           |
|  \\    /   O peration     | Version:  v1812                                 |
|   \\  /    A nd           | Web:      www.OpenFOAM.com                      |
|    \\/     M anipulation  |                                                 |
\*---------------------------------------------------------------------------*/
FoamFile
{
    version     2.0;
    format      ascii;
    class       volVectorField;
    location    "2";
    object      URef;
}
// * * * * * * * * * * * * * * * * * * * * * * * * * * * * * * * * * * * * * //

dimensions      [0 1 -1 0 0 0 0];


internalField   nonuniform List<vector> 
4032
(
(0.01794233971123458 -0.01381863271588522 4.823506396665743e-06)
(0.01030460240286558 -0.005005038116913599 4.357134691237627e-06)
(0.01848477596186656 -0.01426502078213873 5.017413602753142e-06)
(0.03313465319031445 -0.02872977878157016 1.222149678942994e-05)
(0.005134479337637271 -0.002535973955767544 4.448603264494461e-06)
(0.02653409518508335 -0.02252979236939472 1.28895518355554e-05)
(0.01511246719097496 -0.004989079122239105 3.450307780236415e-06)
(0.03249204282353096 -0.02300928425711366 1.040179565465773e-05)
(0.04866595163993788 -0.04221956864567802 1.903707338364627e-05)
(3.169945883844364e-05 -0.0008198626873297281 4.563813883354283e-06)
(0.0186645203855114 -0.0174949163101458 1.361130184917075e-05)
(0.04251653801917173 -0.04135985737678887 2.124510548411232e-05)
(0.02002247254933264 0.005000451568715448 2.625243750230664e-06)
(0.03327786218544593 -0.009134450118983183 7.631065609309432e-06)
(0.05076940183488565 -0.03060722374805386 1.550720630314564e-05)
(0.06779912448629281 -0.05643524000812249 2.553331159281169e-05)
(-0.004793778705898584 0.0003175900873116217 4.632498642613387e-06)
(0.008592679349668739 -0.01279222461967499 1.416386260835075e-05)
(0.03404600230409816 -0.03827042839356831 2.298593271504656e-05)
(0.06017689906247331 -0.0617027093676502 2.908602079889302e-05)
(0.0381150951448522 0.01764584871102556 2.22165084080554e-06)
(0.04623651554109073 0.007036953109017426 5.522983954761869e-06)
(0.05679223657263954 -0.01222120264150269 1.140889154047114e-05)
(0.07283437108334205 -0.03931533151685155 2.051934244263328e-05)
(0.09200064901382289 -0.07224669123047853 3.143495019954173e-05)
(-0.009481981869832821 0.001259820910790609 4.649069323713518e-06)
(-0.002755357045054725 -0.008823870289696679 1.450737579555585e-05)
(0.02150822675202978 -0.03321710638823982 2.427756395235578e-05)
(0.0499180124557537 -0.0625791127003929 3.171693227936604e-05)
(0.08041318490077247 -0.08358687842793093 3.563179784865102e-05)
(0.05154551347802548 0.01973963880577009 9.359126676235014e-07)
(0.07565761398897689 0.02353521588335145 3.861050675458868e-06)
(0.07788203735563343 0.007684675997186185 7.924442195422473e-06)
(0.08429748588447165 -0.01637880206931818 1.497614972223135e-05)
(0.1005364362508174 -0.04987508002255382 2.53685732634092e-05)
(0.1212676075694631 -0.09058906916503197 3.604810012110751e-05)
(-0.0141391789468789 0.002143240245212747 4.615324788874834e-06)
(-0.01490616067272827 -0.005304097916977204 1.466533134818137e-05)
(0.005960205642723026 -0.02772359927747639 2.514141883368899e-05)
(0.03461120307587007 -0.05947585320467062 3.365969916717342e-05)
(0.06511871536057824 -0.08919822769345649 3.845895561187933e-05)
(0.1021556932245074 -0.1079769174750193 3.975916591852157e-05)
(0.04894937876991372 0.008782565384786825 3.053551830879629e-07)
(0.1108836999108477 0.03289546244011006 2.011563255424766e-06)
(0.1184707744462697 0.02732995114545212 5.019563903739767e-06)
(0.1136949506950771 0.007092573253971127 1.000220579531108e-05)
(0.1169490902034139 -0.02213650025780112 1.837271555684081e-05)
(0.1349363897494629 -0.0627726841084451 2.970307788462104e-05)
(0.1554303914130624 -0.1118631972520873 3.922808644045036e-05)
(-0.01873729233320675 0.002991206364924484 4.535953354626291e-06)
(-0.02764003967906218 -0.001967126764231194 1.466327488509244e-05)
(-0.01172688071999015 -0.02201330810507516 2.563807875023843e-05)
(0.01541514832462457 -0.05430540101517899 3.502928361070653e-05)
(0.04430634580734132 -0.08931762695042703 4.039613610558069e-05)
(0.07761199605524743 -0.118648466131085 4.175275760173144e-05)
(0.1244668234250643 -0.1358162114182727 4.126552548746639e-05)
(0.05093810806571237 0.007268983984819755 9.420248095714578e-08)
(0.1300284665784718 0.02702949776874857 8.045257075557384e-07)
(0.1688417963220647 0.04065287825527094 2.543972072043193e-06)
(0.1658308166274856 0.02974265892387237 5.872026276583756e-06)
(0.1549525332774154 0.005242286592698351 1.179605878427682e-05)
(0.1562713169901973 -0.02963631092053051 2.140610619246629e-05)
(0.1771093180947212 -0.07795796785014186 3.364890232176233e-05)
(0.1952171329081797 -0.1358969235556482 3.995107951609465e-05)
(-0.02311139029697118 0.003788159708780881 4.40125338140805e-06)
(-0.04068872442875035 0.001355692236589528 1.448391076459881e-05)
(-0.03092956347742984 -0.01605641472034673 2.583080367510452e-05)
(-0.006551239166274578 -0.04762111492161091 3.59396506736621e-05)
(0.01982927230329683 -0.08577667179643957 4.176294076718958e-05)
(0.04764911082485401 -0.1225509259412687 4.285086646970357e-05)
(0.08636764914805309 -0.1521375459156614 4.160192295451801e-05)
(0.1476742767466837 -0.1680285437380664 3.956093688145557e-05)
(0.05211410919932505 0.006146761101332807 1.275129079796787e-08)
(0.1456313499191525 0.02362922893635337 2.536691450475054e-07)
(0.2087707420834679 0.04031463178577752 1.015005048831462e-06)
(0.2322097318198337 0.04616650062188174 2.791862288754564e-06)
(0.2204394355419577 0.0311825321170738 6.467830487317821e-06)
(0.2035429550494373 0.002420947058224402 1.305967392293039e-05)
(0.2040983879249536 -0.03860024182976732 2.434901101283843e-05)
(0.2286100958970134 -0.09479005160209168 3.65954115457558e-05)
(0.2423733828729573 -0.1617902995317052 3.720794748303592e-05)
(-0.02694567317472617 0.004481476999877163 4.209851974426112e-06)
(-0.05359043101378905 0.004668113836653865 1.411273574392063e-05)
(-0.05111478151361399 -0.009742261687355414 2.573880230188932e-05)
(-0.03044959599308327 -0.03964931336181383 3.648077636193313e-05)
(-0.006791460265241775 -0.07919157313660809 4.278867707033952e-05)
(0.015497527709037 -0.1212041455567429 4.364715160228998e-05)
(0.04424812756812169 -0.1603416731980329 4.157813534376669e-05)
(0.09244418565991924 -0.1912225230267991 3.857683133367704e-05)
(0.173512964335369 -0.2046073682983428 3.509740498942516e-05)
(0.05301542564125766 0.005765186847871149 -1.867789150787423e-08)
(0.1555832345942177 0.0208730506008487 1.971347157034721e-08)
(0.2417542774088896 0.03903726487763769 2.838507555873805e-07)
(0.2916773525372202 0.05080108736144388 1.059978926814976e-06)
(0.3045955501327746 0.05061666382897047 2.882286859408551e-06)
(0.284731523742134 0.03234049324837963 6.538601853094585e-06)
(0.2616661465633581 -0.0008839122352920963 1.387714453610428e-05)
(0.2628636701722494 -0.04815484936408838 2.722888628667633e-05)
(0.2910968076281977 -0.1116404125473074 3.710103067190824e-05)
(0.2993352345033314 -0.1848926289211525 3.249016008187521e-05)
(-0.02982691011991939 0.004987044408447922 3.943408073839545e-06)
(-0.06554825100387739 0.007845710169971537 1.353830683531893e-05)
(-0.07162280863166305 -0.0030439835556129 2.531910989022399e-05)
(-0.05560178965551754 -0.03044667666111067 3.670152264121202e-05)
(-0.03458602201380635 -0.06996878734226429 4.361478969886605e-05)
(-0.01700561702123369 -0.115114062480185 4.444129971993596e-05)
(0.002501835448696289 -0.1614247527609555 4.187084981397045e-05)
(0.03592784579262856 -0.2046726004835426 3.851415657269608e-05)
(0.09771541992490794 -0.2366546565360526 3.503439293949408e-05)
(0.2033909852743098 -0.2420146125731046 3.076944722349004e-05)
(0.05361609775022259 0.005617564328868352 -2.671104459600176e-08)
(0.161907116635223 0.01934240078567355 -7.206204937161632e-08)
(0.2646507231185106 0.03662468233080778 -3.126040178017291e-08)
(0.3421216345625665 0.05259830080558989 2.582582789705053e-07)
(0.3830308791296376 0.05961297131202272 1.071868550283067e-06)
(0.3883542295445587 0.05512121856977976 2.649713672326402e-06)
(0.3612950014381834 0.03394328467440473 6.029325351011067e-06)
(0.332266317794591 -0.003666730189715322 1.462169895591514e-05)
(0.3350533283779318 -0.0564062735806121 2.908260857567717e-05)
(0.3681843669751615 -0.1237879460204993 3.537388302057256e-05)
(0.3674426721815796 -0.1963513145311979 2.668607720123343e-05)
(-0.03128983758195794 0.005221137442296008 3.576350228697104e-06)
(-0.07545490841257069 0.01064140420285407 1.272344268380038e-05)
(-0.09136807605967209 0.003870974133648422 2.447723100412593e-05)
(-0.08130285046695464 -0.02008303071220521 3.656512153681424e-05)
(-0.06290867562300036 -0.05831149641087026 4.430517663277795e-05)
(-0.04887530548493475 -0.1048433731649772 4.532615201820289e-05)
(-0.03700678607245244 -0.1558442051294672 4.256470890524541e-05)
(-0.01708100832710535 -0.2084912497064436 3.937987348988398e-05)
(0.02383852909919732 -0.2570619494655282 3.725003422230652e-05)
(0.1022535038809166 -0.2865006282877549 3.432701861811468e-05)
(0.2394972522570267 -0.2709630829873723 2.592799819282538e-05)
(0.05388641979291683 0.00552707371778283 -3.739153985774936e-08)
(0.1657549886827187 0.01850118522981992 -1.054070786251902e-07)
(0.2800830223968111 0.03491885389479141 -1.594836274308487e-07)
(0.3793624109267397 0.05198748617841171 -8.087097601887063e-08)
(0.4496831551610443 0.06476159822609245 2.835824807289345e-07)
(0.4847786056096786 0.06809908109130737 9.600319833993824e-07)
(0.4853952357968833 0.06058345429427709 1.960822083673754e-06)
(0.453195336262643 0.03709084451990404 5.490238256509166e-06)
(0.418311127670795 -0.004129142165991749 1.471605823167837e-05)
(0.4237756629021887 -0.05938288154268826 2.962371058934799e-05)
(0.4590209033625425 -0.1221913641696076 3.257944470361203e-05)
(0.4486467954693348 -0.1766606137737577 1.676378347727229e-05)
(-0.03106251420000831 0.005138557764246806 3.110949269325084e-06)
(-0.08195243818094707 0.01273241407356087 1.158314852718844e-05)
(-0.1088247984238354 0.01053232506308549 2.316586817572567e-05)
(-0.106522275780442 -0.008788669338910265 3.591212273532994e-05)
(-0.09115114684210346 -0.04443953454940054 4.484700282474654e-05)
(-0.07955073369085004 -0.09076057830604639 4.626174413302966e-05)
(-0.0732138851728895 -0.1442412780857868 4.347757384086942e-05)
(-0.06418762218604507 -0.2031785422464648 4.070120849200209e-05)
(-0.04206861730855518 -0.2643095045393007 4.01497364960161e-05)
(0.007498042164111659 -0.3168434409844328 4.078200604617354e-05)
(0.106769203849886 -0.3329025160605447 3.429525305026344e-05)
(0.2816198536139973 -0.2737203026690455 1.451458455933239e-05)
(0.05386551261464442 0.005433680643198792 -6.604700108006878e-08)
(0.1678415850590863 0.01797589243633004 -1.39279603069094e-07)
(0.2900966587929988 0.03375709154590666 -2.151679967872825e-07)
(0.4058083415015665 0.0512316000439157 -2.262960518522599e-07)
(0.500283328848751 0.06668946650119349 -4.50702502585198e-08)
(0.5651880663049454 0.0765269371428335 2.883428506014967e-07)
(0.5973976068541256 0.07730344076571202 5.140328294706191e-07)
(0.5965896922589882 0.06802834002025375 1.397135788071111e-06)
(0.5619817037991471 0.04375158500848596 4.644377775165152e-06)
(0.5237782194958083 0.001996075999522014 1.353316147249472e-05)
(0.5311550555914709 -0.04852010470341924 2.936222026738827e-05)
(0.5687545143872728 -0.08936763676391828 2.734830856145618e-05)
(0.5425893597478277 -0.1042484059659804 6.015208914831098e-06)
(-0.02923281812559177 0.004775622115155612 2.614523738999473e-06)
(-0.08395060556764966 0.01381263832059542 1.009949464625688e-05)
(-0.1219216685388473 0.01630195806172203 2.127462249352304e-05)
(-0.1297544208949233 0.002849219946391111 3.451504838258857e-05)
(-0.1184849520672035 -0.02871523847662669 4.504468672887832e-05)
(-0.1085064471103588 -0.07325644768770363 4.741188507869294e-05)
(-0.1056104328918297 -0.1270763348324247 4.431192765725027e-05)
(-0.1042303093606074 -0.189444423851944 4.204457132022865e-05)
(-0.09646918745178046 -0.2589199511797703 4.264113619190593e-05)
(-0.07227890845754635 -0.3293357742407121 4.658032161036574e-05)
(-0.0126938912295954 -0.377891687152314 4.686653202904527e-05)
(0.1112082109844776 -0.3595548735085174 2.694717484251281e-05)
(0.3360664028011798 -0.2246470375409572 -9.279436387463356e-06)
(0.05357050447863872 0.005322430971090375 -8.18937624269142e-08)
(0.1686005939575304 0.0175449542591414 -1.988788775045721e-07)
(0.2962032660911476 0.03289941153787286 -2.589977309928338e-07)
(0.423967147262895 0.05048489772768796 -2.957079371535115e-07)
(0.5373874815526076 0.06765117169364197 -2.071294502836973e-07)
(0.6264026791563547 0.08115574391611455 5.761458851834313e-09)
(0.6874543080208655 0.08873867669478799 3.259358564764907e-08)
(0.719032314193509 0.08818300849510248 1.908861256982154e-07)
(0.7203582178175594 0.07922175168558529 8.528196263274682e-07)
(0.6907746759455886 0.05807632638478211 3.063254730543582e-06)
(0.6533812918070968 0.02235180542028592 1.169345678029698e-05)
(0.6580571141120872 -0.01145707618131292 2.601116742920604e-05)
(0.6800933080930863 -0.01240272172655832 2.815554394945009e-05)
(0.6307090309666191 0.06745592870099019 3.490594443862611e-05)
(-0.02636352265871225 0.004240677620354369 2.131059775255815e-06)
(-0.08123989230541186 0.0138549830667455 8.518358611077386e-06)
(-0.1286883018564676 0.02044646071329138 1.869946627125964e-05)
(-0.1487815324243617 0.0138712455095417 3.219005370320345e-05)
(-0.1437801786107559 -0.0118816273828941 4.451337046366868e-05)
(-0.1350744874764816 -0.05290121303404148 4.874293827783464e-05)
(-0.1337429600561845 -0.1049903695368994 4.554161229198308e-05)
(-0.1367356622103854 -0.1679307030415351 4.309142710816903e-05)
(-0.138389408202608 -0.2417554874433903 4.424757390618247e-05)
(-0.1319183458859576 -0.3241038366298834 4.990835159660507e-05)
(-0.1056130947948648 -0.3994809155282776 5.705701771268862e-05)
(-0.03568578696913061 -0.4259323124494264 4.892600535769375e-05)
(0.1232601147209523 -0.3459957613129308 4.847758963108764e-06)
(0.3992817477148778 -0.06503616677256648 -3.479403773765294e-06)
(0.05294496159628163 0.005178603172402483 -6.248905368142537e-08)
(0.1682627333312365 0.01714461999046976 -2.443012651051983e-07)
(0.2993663963665674 0.03214459654658231 -3.116092754758189e-07)
(0.4359085633823332 0.04972655176616934 -3.41083707924454e-07)
(0.5638820732462437 0.06795010475033682 -3.097053665473598e-07)
(0.6718506138513929 0.08407419489142419 -1.627839060556759e-07)
(0.7548547924091555 0.09581098236785687 -1.568523858064972e-07)
(0.8123703888092267 0.1020989822567164 -1.552083936215073e-07)
(0.8450579101564293 0.1020990564449059 -4.560225909200434e-08)
(0.8545437238534573 0.09724350828608232 3.742026710085772e-08)
(0.8367656663880229 0.08631105452735466 1.800915006878543e-06)
(0.8069496497962523 0.07079318054289761 8.092397707919181e-06)
(0.8027256198284388 0.07572169242736164 2.511713537773015e-05)
(0.8081410681173659 0.1613861760751502 5.367271056140454e-05)
(0.7092316204273212 0.345990605266612 7.229742917366727e-05)
(-0.02303475806136573 0.003646016997495007 1.692589903701054e-06)
(-0.07501956933732788 0.01303211812746731 6.953804288772152e-06)
(-0.1278433858952446 0.02249101488655693 1.58828258764136e-05)
(-0.1611161931208567 0.02302115585335449 2.883249501747189e-05)
(-0.1653588230408551 0.005004102673462959 4.27680906976704e-05)
(-0.1586183664934979 -0.03080938462959161 4.981539325605565e-05)
(-0.15725889387654 -0.07903400127464316 4.734003074063389e-05)
(-0.1614602273609358 -0.1397252475329259 4.407267269056525e-05)
(-0.1672577395734953 -0.2136600614886389 4.504045096052756e-05)
(-0.1715957242648646 -0.3020950774807731 5.04568839724856e-05)
(-0.1658951727564112 -0.3958964315846242 6.03816676205269e-05)
(-0.1398244668662931 -0.4645356019733972 6.806101411926558e-05)
(-0.04756405756239326 -0.4451938158644013 4.394312496139053e-05)
(0.1509479134050084 -0.2278560045223238 -9.753880427353616e-06)
(0.4685022082929159 0.2345525950762091 5.07719185647016e-05)
(0.05199734994493519 0.004980360093402895 -1.396874162688149e-08)
(0.1668289112338326 0.01668814343134659 -2.05084618906203e-07)
(0.3001164115167557 0.03140307584616271 -3.639651846448947e-07)
(0.4430308038528246 0.04886929428155312 -3.777403411401499e-07)
(0.5822266377311399 0.06776206169484959 -3.885105525435262e-07)
(0.7050061433272043 0.08565804343833384 -2.883092148993274e-07)
(0.8045668636037099 0.1004396327001614 -2.571178567545576e-07)
(0.8796522120757496 0.110900341377489 -2.82333304347926e-07)
(0.9328810033587234 0.1172892998620187 -2.964888350716145e-07)
(0.9685297433127253 0.1208102594979582 -4.426468551702782e-07)
(0.9887474038866058 0.1252590891921615 -2.263401929392214e-07)
(0.9926543587857382 0.1372219576223302 5.960185570106459e-07)
(0.9857844536485347 0.1660250682832931 1.020190606256056e-05)
(0.9798724745460099 0.2503172174892521 4.225753727916092e-05)
(0.9027169619442914 0.4135916944322564 7.372362971091233e-05)
(0.7052579634464956 0.5282487613584401 7.377450933906322e-05)
(-0.01958297256981641 0.00304769636938073 1.323201689670504e-06)
(-0.0668740399199179 0.01172003262659795 5.528864672641978e-06)
(-0.1208698402108119 0.02261264979633154 1.305456587210485e-05)
(-0.1642893893444798 0.02911385284501059 2.46950949908649e-05)
(-0.181048930122239 0.02027397401711229 3.946046112548215e-05)
(-0.1783363310829005 -0.00818861981773507 4.998886201940784e-05)
(-0.1761836433968194 -0.05107071154560209 4.940393308772478e-05)
(-0.178823913399677 -0.1065524639444685 4.501184196101321e-05)
(-0.1833519528181081 -0.1768220296714659 4.49689264624611e-05)
(-0.1899434879011271 -0.2638707241042419 4.923838269753671e-05)
(-0.1956463131793674 -0.3680318783374312 5.800870005412043e-05)
(-0.1954774950541947 -0.4667942904733562 7.052519824121115e-05)
(-0.1580621746980658 -0.5068848268628534 7.801132467828583e-05)
(-0.04761158862279669 -0.3810193965028798 3.648232037224334e-05)
(0.2112576890375958 0.06779391267494238 3.982454945568532e-05)
(0.4963959024558914 0.462010203846817 6.914820434314991e-05)
(0.05081948325660988 0.004754103359367523 2.945340236850481e-08)
(0.1642616344042887 0.01604995884500708 -5.008042861876612e-08)
(0.29877584832614 0.03062455840381112 -3.586263001990525e-07)
(0.4462024807763724 0.04788192371551375 -4.076338184595686e-07)
(0.5941301842695076 0.06713364146631624 -4.349502821533258e-07)
(0.7287178661610352 0.0862426414209878 -3.909653429492573e-07)
(0.8408798641743699 0.1031015965959694 -3.078876286731041e-07)
(0.9277265660390621 0.1165053922342989 -3.338701860498747e-07)
(0.9914902468270442 0.1264332638488065 -4.075908213333928e-07)
(1.037946242827642 0.1349377517058133 -5.924496532060498e-07)
(1.072181402743414 0.1451943566555063 -4.327319168373547e-07)
(1.100762456821651 0.165691677850295 -1.131153089244903e-07)
(1.120353491572601 0.2102583354273009 6.917949719926818e-06)
(1.119182454771887 0.2991700680184738 3.185183039511375e-05)
(1.046548804229041 0.4414954375913148 6.028884332191013e-05)
(0.8741779527105367 0.5441120339967608 6.729019193840064e-05)
(0.673662291566549 0.5560668820422435 5.159353081440626e-05)
(-0.01636341351667159 0.00250251107452331 1.039017459937977e-06)
(-0.05790767607274873 0.01015602310313401 4.322937905690513e-06)
(-0.1099266299333698 0.02132325976212635 1.04136379344167e-05)
(-0.1590257319731293 0.03177352177631226 2.069759175752301e-05)
(-0.1881418447128873 0.03209387405238123 3.463944852865939e-05)
(-0.1930634909999487 0.01313924676360546 4.82167908019029e-05)
(-0.1907043476624955 -0.02261286726675314 5.142588137092507e-05)
(-0.1901272579793388 -0.07162590411741937 4.640518214693674e-05)
(-0.1892361594859754 -0.1343663635555327 4.431538081671322e-05)
(-0.1889753274572702 -0.2159022162518305 4.674132585722261e-05)
(-0.1907961845906649 -0.3150216153911604 5.272623543143928e-05)
(-0.2065184096623329 -0.4379816051683317 6.277141498936487e-05)
(-0.1975631344974514 -0.5214073619817061 7.877811962800823e-05)
(-0.1607916937994532 -0.4930109117732194 8.772755291849262e-05)
(-0.008901001602441883 -0.1254074177380168 5.257660754654754e-05)
(0.2770509342849414 0.3396705609296821 6.114567037722517e-05)
(0.5090197790528969 0.537962199536792 5.324925025818539e-05)
(0.04934520319913951 0.004504976154167482 3.456736726117635e-08)
(0.1607463589388341 0.01533231850145631 9.708674797940396e-08)
(0.2952016754045377 0.02953573951863589 -1.617746685845514e-07)
(0.4460254094432106 0.04687686807148461 -4.261059547445828e-07)
(0.6007293535333469 0.06610541429360309 -4.305302968024558e-07)
(0.7449564748731882 0.08599358859382418 -4.611336317677864e-07)
(0.8671206414391329 0.1042975893131329 -3.362398073500212e-07)
(0.961915941859752 0.1196088149895221 -3.446859864873571e-07)
(1.030357520400807 0.1317954229702531 -4.812261873024555e-07)
(1.078090938040875 0.142672294674408 -7.094963165011711e-07)
(1.112387016813483 0.1557381530785177 -5.769351649435029e-07)
(1.142167801172855 0.1780714338081981 -3.501176239863981e-08)
(1.169112975506402 0.2209631033220755 6.850379003316717e-06)
(1.180146641283293 0.3024495673122741 2.671044184364463e-05)
(1.1303514888305 0.4268082966660989 4.797155123271172e-05)
(0.9890598214971177 0.5202446405801877 5.224017815664151e-05)
(0.796278277493475 0.5323407924210937 4.111771045772295e-05)
(0.5716532867591158 0.436433846101192 1.648905204855841e-05)
(-0.01353457883177722 0.002031971636325144 8.352647758831939e-07)
(-0.04923342529276403 0.008577183708590246 3.392522416664807e-06)
(-0.09693363883405776 0.0191577600355897 8.15485417433421e-06)
(-0.1477911513407696 0.03174132004522479 1.66119514199857e-05)
(-0.1855983288800355 0.03888845280640624 2.95560774659851e-05)
(-0.2009273648605918 0.03116480216137084 4.409429288818806e-05)
(-0.200818963771344 0.004278428612030927 5.196915873865545e-05)
(-0.1968712081776741 -0.03705574858837743 4.868566239168824e-05)
(-0.189115939856949 -0.09110393943832695 4.430896252936387e-05)
(-0.1778020454505092 -0.1625933418455534 4.425022699550299e-05)
(-0.1622213138037815 -0.2518553081496027 4.701672026429915e-05)
(-0.1627940561331465 -0.3678206910453405 5.064734692747271e-05)
(-0.1724512882473793 -0.4908023380638204 5.960560630659761e-05)
(-0.1823579609915665 -0.5349514977978862 8.722372718052393e-05)
(-0.1331032519260439 -0.3029785364262955 8.780998040171395e-05)
(0.09143436996458111 0.1859840774445262 5.245878358191623e-05)
(0.3196623240043526 0.4713585175586306 4.709738854425921e-05)
(0.4615275051389883 0.4446347704128878 2.130710396167284e-05)
(0.04822122791424556 0.004254594436158736 1.464619686538898e-08)
(0.1565089509533704 0.01456256337563749 1.141112305770537e-07)
(0.2896493039610264 0.02823714779051081 1.308784711297715e-07)
(0.4425763663213691 0.0454031021833072 -3.315000791566336e-07)
(0.6026990506836697 0.06472755422575618 -4.007939211660976e-07)
(0.7550546761180075 0.08503158060776991 -4.827705629894554e-07)
(0.8855610297281937 0.1043124494231666 -4.065212108568048e-07)
(0.9861376094747717 0.1208951532497601 -3.441433211372107e-07)
(1.056048280612555 0.1343480692156516 -5.373853794685394e-07)
(1.101071513843125 0.1465692317201231 -7.92410102505727e-07)
(1.130363852429628 0.1604669359087372 -7.347704186003386e-07)
(1.155032145540935 0.1824198400192711 -6.356999251635529e-08)
(1.177586804483814 0.2214589276051269 6.157983325835998e-06)
(1.189440071474387 0.2904635806762218 2.032969993208429e-05)
(1.155836445157867 0.3921081863720634 3.368507400757103e-05)
(1.041422151578399 0.4740665597110881 3.547666769892458e-05)
(0.8737224048508948 0.4846831022577598 2.674963647437841e-05)
(0.6692507357638702 0.3910284117093981 9.255207579325331e-06)
(0.5343262010533909 0.1495039078440638 5.077482593845455e-06)
(-0.01116631667817941 0.001644670882033099 6.918864168683401e-07)
(-0.04145652685878538 0.007126468257704832 2.724297806840696e-06)
(-0.0838000999348459 0.01661716139471603 6.398937472307832e-06)
(-0.1329722010727618 0.0297589634514508 1.307342209800655e-05)
(-0.1760713272622604 0.04158324793562037 2.415156962798072e-05)
(-0.2000909370532625 0.04331005716080238 3.852259044110547e-05)
(-0.2058691362488881 0.02783002690573372 4.997606661872146e-05)
(-0.2003610588828087 -0.004953477134260173 5.055053914862301e-05)
(-0.1865475611554241 -0.05002834727651496 4.553069670072737e-05)
(-0.1634334116530909 -0.1118409907904379 4.258000593449359e-05)
(-0.1292141525167392 -0.1880419460323854 4.123935471965412e-05)
(-0.09695239698759638 -0.2966389280722055 4.237184336768189e-05)
(-0.05157708015813516 -0.4092331536396011 3.406973761522807e-05)
(-0.06994986669239775 -0.4803172910124257 4.974248199233071e-05)
(-0.153213013739342 -0.3763006518914935 7.38747626557057e-05)
(-0.08079156814957615 0.002586918435875455 3.86019550675643e-05)
(0.1242282498173348 0.3429926484581218 3.704578837898877e-05)
(0.3728356954123198 0.4028917823202112 2.158953214826632e-05)
(0.5722676410074877 0.1652426013267534 5.789068123072674e-06)
(0.04808135005266952 0.004093068050753074 -1.913873317381322e-09)
(0.1533242834188606 0.01370768490712462 4.826714987881481e-08)
(0.2830104441986142 0.02685410362444597 2.088826985400556e-07)
(0.4358336056036491 0.04347163111303332 -4.346678853114359e-08)
(0.6007365777827512 0.0631175901522034 -3.807118776755119e-07)
(0.7598373694040377 0.08345199717173213 -4.852177891423485e-07)
(0.897747112633148 0.1033480410089814 -5.144127116739216e-07)
(1.003008119200151 0.1207661852486639 -3.857949411086649e-07)
(1.07299031487717 0.1349455474664551 -5.823466773746823e-07)
(1.113934256551243 0.1478029219857895 -8.592683895826743e-07)
(1.137530604805935 0.1619406052902326 -8.292092993646016e-07)
(1.156472905693162 0.1827719007250005 -8.914919511377571e-08)
(1.172909829331312 0.2174842703982058 5.082388381619283e-06)
(1.179000274152382 0.2743983345825503 1.384753980796055e-05)
(1.14897900247786 0.3559416048245316 1.808233631643728e-05)
(1.054496931244343 0.4225132768958496 1.904269287975518e-05)
(0.917857842455137 0.4314110703829389 1.413015520939606e-05)
(0.7510057794313969 0.339306771844473 4.01209068413906e-06)
(0.5589960157601112 0.1237355777463165 2.589158126887762e-06)
(0.5788042916750683 -0.06884958577491616 5.554473809815764e-06)
(-0.009229016702839097 0.001331876902645955 5.885327930996715e-07)
(-0.03488053350541538 0.005883916943005521 2.254219566314707e-06)
(-0.07173479368126033 0.01407740365093125 5.128562141231461e-06)
(-0.1171175955543426 0.02661460587680067 1.027590101471576e-05)
(-0.1617512840799896 0.04087821233184118 1.924975968922376e-05)
(-0.1925086223528406 0.04982685863465891 3.249819976413488e-05)
(-0.2046115686456259 0.0451272913048754 4.557963690495136e-05)
(-0.2006798814678313 0.02327772368646019 5.041205189324759e-05)
(-0.1829473022505561 -0.01359436473802353 4.678429077041412e-05)
(-0.1492946883789578 -0.06599337352719939 4.127204023790531e-05)
(-0.09698366829858085 -0.1298315414819712 3.60614992149276e-05)
(-0.02715574261041045 -0.2301482818885021 3.191838765271172e-05)
(0.1069170854193192 -0.3274715076039231 1.766087600115501e-05)
(0.1924700404132494 -0.3473938724289568 1.117580748715252e-05)
(0.06336305829180611 -0.330821203101362 3.30964630823383e-05)
(-0.07582903532847904 -0.1146875209439932 2.13922540585548e-05)
(0.0522990339004213 0.2137853966572528 2.446005118578501e-05)
(0.374926689136515 0.3323228876105213 1.616711185942687e-05)
(0.6607694431815924 0.1716690154519316 5.063812507485155e-06)
(0.6304970898300564 -0.06680281164367462 3.791911182380268e-06)
(0.04813464514566271 0.003962551349958201 -1.228496590585787e-08)
(0.152742189195498 0.01311183161383208 -5.845091437592993e-09)
(0.278011684004637 0.02525823551172812 9.504567754280449e-08)
(0.4277179302900749 0.04137494774679458 1.765181347662848e-07)
(0.5942417434846721 0.06060220348147242 -3.482789443996783e-07)
(0.7599209289947314 0.08150602810674626 -5.04852440689505e-07)
(0.9046417196437032 0.1015259465281844 -5.857255270474731e-07)
(1.014263823457412 0.1194944813629124 -4.600071416384167e-07)
(1.083945120110426 0.1340857003534064 -6.185870166297019e-07)
(1.12081503695708 0.1472571972468144 -9.192701360325477e-07)
(1.139103516770685 0.1611315376060499 -8.850071909805185e-07)
(1.152450210315491 0.1806308984763146 -5.661711669658984e-08)
(1.162475671587306 0.2114104810973774 3.738324957182113e-06)
(1.162997792086839 0.2591837799215094 8.765827135765482e-06)
(1.134187445377032 0.3241127088684708 7.667200786131548e-06)
(1.056234355964784 0.3776827898612721 6.851483579371412e-06)
(0.944892718851755 0.3855956490409532 4.967406035042497e-06)
(0.8125548609549702 0.3135746066002377 1.195711303162962e-06)
(0.6921996244434726 0.124543702698643 -4.525185714914314e-06)
(0.6320023960112786 -0.0209054239911048 6.93571428521934e-06)
(0.6924796354300307 0.02239095139336808 7.956294817627267e-06)
(-0.007673273914613841 0.001083809213464054 5.108985859939834e-07)
(-0.02947851423347379 0.004856909867556007 1.915891113326059e-06)
(-0.06141685566771127 0.01179357042109823 4.234141732327079e-06)
(-0.1020355687899403 0.02302059826702904 8.215017239849776e-06)
(-0.14534958182821 0.03781440626138752 1.521226146628165e-05)
(-0.1799537106355557 0.05171644179817299 2.643576680952194e-05)
(-0.1978740773261704 0.05570055597181472 3.978691312987505e-05)
(-0.1971041206965208 0.04527620061613105 4.79666194842538e-05)
(-0.1787486746029214 0.01775393640150688 4.626432678786912e-05)
(-0.1373333573564284 -0.02656981541530459 3.954128389762952e-05)
(-0.07014760162871259 -0.07855298249604674 3.092886928302801e-05)
(0.03706253238387323 -0.1719202017636422 2.270371471493813e-05)
(0.2453030808566297 -0.2560819063522974 3.799719204872515e-06)
(0.4042149374363338 -0.2533997822366986 -2.102848635619042e-06)
(0.3756377520822508 -0.2024480438902841 6.585811923071885e-06)
(0.2726180685320944 -0.06394200210578464 1.694058956819094e-05)